ITEM: TIMESTEP
0
ITEM: NUMBER OF ATOMS
6
ITEM: BOX BOUNDS pp pp pp
-0 0
-0 0
-0 0
ITEM: ATOMS id type x y z c_q[1] c_q[2] c_q[3] c_q[4] c_shape[1] c_shape[2] c_shape[3] vx vy vz angmomx angmomy angmomz mol
1 1 -6.41657 0.0980108 -0.00100017 -0.198184 0.678065 0.198936 0.679246 1.99435 1.99435 2.48075 0 0 0 0 0 0 1
2 2 -3.852 0.061 0.00200004 -0.196315 0.679121 0.196963 0.679309 1.99435 1.99435 2.48075 0 0 0 0 0 0 1
3 2 -1.2835 0.02 0.00100004 -0.196236 0.679509 0.197279 0.678852 1.99435 1.99435 2.48075 0 0 0 0 0 0 1
4 2 1.2835 -0.02 -0.00100004 -0.196236 0.679509 0.197279 0.678852 1.99435 1.99435 2.48075 0 0 0 0 0 0 1
5 2 3.852 -0.061 -0.00200004 -0.196315 0.679121 0.196963 0.679309 1.99435 1.99435 2.48075 0 0 0 0 0 0 1
6 3 6.41657 -0.0980109 0.00100021 -0.198286 0.678095 0.198835 0.679217 1.99435 1.99435 2.48075 0 0 0 0 0 0 1
