ITEM: TIMESTEP
500000
ITEM: NUMBER OF ATOMS
1000
ITEM: BOX BOUNDS pp pp ff
-5.0000000000000000e+01 5.0000000000000000e+01
-5.0000000000000000e+01 5.0000000000000000e+01
-1.0000000000000000e+01 2.0000000000000000e+02
ITEM: ATOMS id type xu yu zu c_q[1] c_q[2] c_q[3] c_q[4] c_shape[1] c_shape[2] c_shape[3] mol
1 1 -54.6157 -44.1599 1.80393 0.392713 -0.835629 0.287837 -0.254262 6.6359 2.79015 1.64195  1
2 2 -61.815 -41.2669 0.274646 -0.832532 0.103197 0.206143 0.503731 4.07705 2.95125 1.5873  1
3 2 -51.1131 -50.9474 1.12121 0.572037 0.201754 0.632934 0.481106 4.07705 2.95125 1.5873  1
4 3 -58.9059 -38.6913 2.78204 0.219728 0.129035 -0.94791 -0.191144 2.8725 3.1959 1.62585  1
5 3 -49.6125 -47.7368 4.21473 -0.694933 -0.551639 -0.253059 0.385647 2.8725 3.1959 1.62585  1
6 1 -36.2726 -57.1024 4.5929 -0.375007 0.848909 -0.231843 0.291501 6.6359 2.79015 1.64195  2
7 2 -40.6065 -51.1613 2.48173 -0.0145418 0.992824 -0.0721917 0.0942238 4.07705 2.95125 1.5873  2
8 2 -31.0095 -62.7973 5.16647 0.632768 0.058015 0.601311 0.484421 4.07705 2.95125 1.5873  2
9 3 -40.3728 -55.1403 -0.0836308 0.574006 -0.583184 -0.21489 0.533137 2.8725 3.1959 1.62585  2
10 3 -30.9379 -59.2381 8.31384 -0.788276 -0.534574 -0.205027 0.225424 2.8725 3.1959 1.62585  2
11 1 -17.979 -61.0316 0.40548 0.23955 0.969093 0.0103575 0.0580186 6.6359 2.79015 1.64195  3
12 2 -25.3428 -62.8381 1.52015 0.818965 -0.459019 -0.337324 -0.0693592 4.07705 2.95125 1.5873  3
13 2 -11.3251 -61.0115 4.22745 0.078831 -0.178935 0.693437 -0.693479 4.07705 2.95125 1.5873  3
14 3 -24.3714 -58.676 0.156514 -0.431217 -0.174169 0.864529 -0.190545 2.8725 3.1959 1.62585  3
15 3 -11.2411 -63.1749 0.166864 -0.415441 0.657338 0.0647016 0.625404 2.8725 3.1959 1.62585  3
16 1 19.7432 -55.3245 7.66575 -0.520443 -0.591094 -0.490467 0.373081 6.6359 2.79015 1.64195  4
17 2 18.8668 -55.7394 15.2647 -0.178562 0.591201 0.346617 -0.706012 4.07705 2.95125 1.5873  4
18 2 21.4631 -51.8707 0.66649 -0.163054 -0.787403 -0.0198665 -0.59415 4.07705 2.95125 1.5873  4
19 3 16.5095 -58.7492 12.2805 0.329136 0.333667 -0.0577556 0.881476 2.8725 3.1959 1.62585  4
20 3 23.6525 -55.9666 1.92676 -0.080622 0.866005 0.434714 -0.23358 2.8725 3.1959 1.62585  4
21 1 34.6973 -49.4441 3.76918 -0.306988 -0.893171 -0.207135 -0.255144 6.6359 2.79015 1.64195  5
22 2 28.8476 -51.8832 -0.311223 0.707999 0.703184 0.0421958 -0.0498944 4.07705 2.95125 1.5873  5
23 2 39.6246 -43.3184 5.17015 -0.0036406 0.10409 -0.0901723 0.990465 4.07705 2.95125 1.5873  5
24 3 29.5779 -54.0047 3.30763 -0.0485128 -0.689295 0.258357 0.675108 2.8725 3.1959 1.62585  5
25 3 39.8959 -47.3148 6.77077 -0.0195776 -0.642665 -0.574942 -0.506004 2.8725 3.1959 1.62585  5
26 1 -51.4943 -32.0361 1.06495 0.666311 -0.340814 0.436496 -0.499347 6.6359 2.79015 1.64195  6
27 2 -54.1622 -25.1503 -0.0102359 0.560688 -0.0242943 -0.248758 -0.789404 4.07705 2.95125 1.5873  6
28 2 -48.1202 -38.8297 -0.100304 -0.711873 -0.0757877 0.458196 -0.526829 4.07705 2.95125 1.5873  6
29 3 -51.703 -26.2419 4.16273 0.0495008 0.274404 0.851817 0.443463 2.8725 3.1959 1.62585  6
30 3 -53.1688 -38.6574 0.450699 0.255523 0.801935 -0.373262 0.390236 2.8725 3.1959 1.62585  6
31 1 -24.8861 -15.4125 0.948935 -0.0575653 0.865008 -0.498442 -0.00132752 6.6359 2.79015 1.64195  7
32 2 -27.5468 -8.39939 -0.336219 0.36792 0.575993 -0.291328 -0.669324 4.07705 2.95125 1.5873  7
33 2 -22.7382 -22.7826 1.22736 0.404346 0.257992 0.870372 0.111341 4.07705 2.95125 1.5873  7
34 3 -29.6059 -11.1634 2.83584 0.42498 -0.181306 0.620718 0.633426 2.8725 3.1959 1.62585  7
35 3 -19.4109 -19.3314 0.619642 -0.657113 -0.153565 -0.376181 0.634908 2.8725 3.1959 1.62585  7
36 1 -7.89773 -38.0719 1.21241 0.916002 0.374583 0.0533437 0.133349 6.6359 2.79015 1.64195  8
37 2 -14.8563 -39.0648 2.97413 0.099052 0.875517 0.385918 -0.273363 4.07705 2.95125 1.5873  8
38 2 -0.147935 -36.9336 0.867465 0.195613 -0.27936 0.828153 0.44481 4.07705 2.95125 1.5873  8
39 3 -12.7358 -42.4634 0.207 0.21495 -0.169541 -0.31286 0.909489 2.8725 3.1959 1.62585  8
40 3 -3.03945 -33.1523 1.08744 -0.887386 0.029941 -0.452847 0.0811121 2.8725 3.1959 1.62585  8
41 1 8.90843 -29.8184 0.58601 -0.159599 -0.973957 -0.151797 -0.0537862 6.6359 2.79015 1.64195  9
42 2 1.75508 -31.3835 1.57079 0.286833 0.818702 0.408491 -0.283882 4.07705 2.95125 1.5873  9
43 2 16.5053 -30.4221 -0.429706 0.236463 -0.213992 0.843699 0.431816 4.07705 2.95125 1.5873  9
44 3 4.66439 -34.8355 -0.141054 0.0882363 -0.359295 -0.16769 0.913784 2.8725 3.1959 1.62585  9
45 3 14.4684 -26.0277 0.0426732 -0.803147 -0.0147835 -0.565134 0.188043 2.8725 3.1959 1.62585  9
46 1 38.7401 -28.6711 1.78418 -0.742934 -0.0890786 -0.0554859 -0.661087 6.6359 2.79015 1.64195  10
47 2 35.2238 -35.7455 1.37418 0.329765 0.561969 0.758473 -0.0128572 4.07705 2.95125 1.5873  10
48 2 39.3712 -21.5675 4.72332 -0.409619 0.709782 -0.37115 0.436656 4.07705 2.95125 1.5873  10
49 3 40.1188 -35.2964 0.369649 -0.337408 -0.185609 -0.353777 0.852377 2.8725 3.1959 1.62585  10
50 3 41.5301 -22.4535 0.545286 0.730743 -0.530623 -0.41845 -0.0967107 2.8725 3.1959 1.62585  10
51 1 -37.098 -4.04273 3.73798 -0.910137 -0.15671 0.175306 -0.341116 6.6359 2.79015 1.64195  11
52 2 -41.1572 -9.63824 0.781451 0.814074 -0.183789 -0.547858 0.0579368 4.07705 2.95125 1.5873  11
53 2 -33.2984 1.07433 7.66859 0.297486 -0.275253 0.443361 -0.79948 4.07705 2.95125 1.5873  11
54 3 -42.9973 -5.40021 0.586538 -0.178601 -0.43772 0.84184 -0.260401 2.8725 3.1959 1.62585  11
55 3 -31.1882 -2.36828 6.43887 -0.24574 0.629739 0.491464 0.549093 2.8725 3.1959 1.62585  11
56 1 -25.3751 -2.46371 2.81638 -0.791087 -0.593387 0.127825 -0.0757231 6.6359 2.79015 1.64195  12
57 2 -32.556 -0.660311 1.51523 0.124302 0.969393 0.201694 -0.0643897 4.07705 2.95125 1.5873  12
58 2 -18.8867 -3.65869 6.70185 0.136014 -0.15859 0.862188 -0.4615 4.07705 2.95125 1.5873  12
59 3 -31.057 -4.32885 -0.105055 0.378987 -0.44512 -0.230644 0.777843 2.8725 3.1959 1.62585  12
60 3 -19.2268 -3.92425 2.20769 -0.545515 0.454351 -0.146913 0.688763 2.8725 3.1959 1.62585  12
61 1 -8.03145 -4.91337 3.57938 -0.904648 -0.345505 0.241216 -0.0636665 6.6359 2.79015 1.64195  13
62 2 -13.9909 -6.71665 -0.0957552 0.875358 -0.0612577 -0.421738 -0.228325 4.07705 2.95125 1.5873  13
63 2 -2.30818 -3.73566 8.14888 -0.18661 0.170508 -0.673559 0.694566 4.07705 2.95125 1.5873  13
64 3 -14.3038 -3.13842 2.75303 -0.247357 -0.441904 0.85651 0.0996268 2.8725 3.1959 1.62585  13
65 3 -1.99711 -7.12462 4.75391 0.329241 -0.663536 -0.187299 -0.645166 2.8725 3.1959 1.62585  13
66 1 4.07049 -17.2481 0.977009 0.867358 0.0886104 0.114413 -0.47618 6.6359 2.79015 1.64195  14
67 2 -0.201484 -12.2801 5.2531 -0.560011 0.815353 -0.103449 0.10433 4.07705 2.95125 1.5873  14
68 2 9.93504 -22.0229 0.381289 0.526265 0.110157 -0.481754 0.69197 4.07705 2.95125 1.5873  14
69 3 1.41688 -11.1037 1.07616 0.750819 -0.261485 -0.568165 0.212334 2.8725 3.1959 1.62585  14
70 3 5.69828 -23.8555 0.136224 -0.160776 -0.875403 0.146312 -0.431756 2.8725 3.1959 1.62585  14
71 1 35.3345 -5.23204 1.6181 0.755995 -0.49946 -0.31302 0.284657 6.6359 2.79015 1.64195  15
72 2 29.0288 -9.67509 1.23624 0.152278 0.800545 0.577891 -0.0445043 4.07705 2.95125 1.5873  15
73 2 38.7012 1.7262 0.89077 -0.211384 0.0447804 0.179548 0.959726 4.07705 2.95125 1.5873  15
74 3 33.1324 -11.2218 -0.156682 -0.0159666 -0.347671 -0.338019 0.874422 2.8725 3.1959 1.62585  15
75 3 39.3313 -0.882019 4.54305 -0.232406 -0.471745 -0.718465 -0.455249 2.8725 3.1959 1.62585  15
76 1 -49.3578 29.3696 1.94512 -0.271599 0.95404 -0.115273 0.0524758 6.6359 2.79015 1.64195  16
77 2 -55.8229 33.0303 2.12923 0.289569 0.879401 0.0438612 -0.37534 4.07705 2.95125 1.5873  16
78 2 -42.6636 26.352 0.0926904 0.388005 0.158663 0.649891 0.633971 4.07705 2.95125 1.5873  16
79 3 -56.0785 28.4756 2.22308 0.372829 -0.426069 0.0645102 0.821768 2.8725 3.1959 1.62585  16
80 3 -42.6013 29.9676 3.29603 -0.747116 -0.450052 -0.464312 0.1539 2.8725 3.1959 1.62585  16
81 1 -27.9174 1.45755 4.95045 0.875403 -0.126721 -0.284712 -0.369528 6.6359 2.79015 1.64195  17
82 2 -33.8018 4.87208 0.995568 0.525931 -0.5802 -0.369678 -0.500103 4.07705 2.95125 1.5873  17
83 2 -23.0448 -0.745968 10.5363 -0.164849 0.101045 0.534111 -0.823007 4.07705 2.95125 1.5873  17
84 3 -29.4031 6.62666 0.689717 -0.231737 0.331014 0.902801 -0.147232 2.8725 3.1959 1.62585  17
85 3 -25.4857 -4.04547 8.346 0.125972 0.73681 -0.047184 0.662583 2.8725 3.1959 1.62585  17
86 1 -10.9979 5.84781 0.189089 0.909281 0.144236 0.141958 0.363665 6.6359 2.79015 1.64195  18
87 2 -17.557 2.29633 1.83784 0.257239 0.752272 0.561314 -0.229873 4.07705 2.95125 1.5873  18
88 2 -4.66462 9.98656 0.542987 0.185621 -0.486911 0.742821 0.420333 4.07705 2.95125 1.5873  18
89 3 -14.4495 0.119979 -0.495686 -0.0319576 -0.267861 -0.234487 0.93394 2.8725 3.1959 1.62585  18
90 3 -8.83473 12.1642 -0.0455467 -0.922215 0.100102 -0.358457 -0.104916 2.8725 3.1959 1.62585  18
91 1 4.62606 17.7274 -0.594797 -0.0144289 -0.956024 -0.292767 0.00990364 6.6359 2.79015 1.64195  19
92 2 -2.95733 15.8327 0.281776 0.406649 0.799241 0.403707 -0.181303 4.07705 2.95125 1.5873  19
93 2 12.1335 20.3549 -0.14769 0.245824 -0.402128 0.762864 0.442608 4.07705 2.95125 1.5873  19
94 3 0.554928 12.4482 -0.0369233 -0.0208424 -0.298334 0.025718 0.953887 2.8725 3.1959 1.62585  19
95 3 8.73707 23.1424 -0.32781 -0.912575 0.0484357 -0.404915 -0.0300663 2.8725 3.1959 1.62585  19
96 1 22.0537 2.49895 5.06949 0.671362 0.623783 -0.386037 -0.105566 6.6359 2.79015 1.64195  20
97 2 16.519 5.78634 0.865468 0.731861 0.155716 -0.395754 -0.532457 4.07705 2.95125 1.5873  20
98 2 26.3153 -3.16245 7.83337 0.330689 0.106838 0.929814 -0.121145 4.07705 2.95125 1.5873  20
99 3 17.3482 7.63145 4.86525 0.0389824 -0.239742 0.935227 0.257595 2.8725 3.1959 1.62585  20
100 3 28.4499 0.455874 5.64699 -0.699413 -0.00387738 -0.238767 0.673644 2.8725 3.1959 1.62585  20
101 1 -55.834 46.7063 6.91678 -0.721018 -0.44075 0.534662 -0.00294547 6.6359 2.79015 1.64195  21
102 2 -58.8924 52.0209 2.39015 0.135433 0.967945 -0.162252 0.135698 4.07705 2.95125 1.5873  21
103 2 -53.0649 41.5482 11.822 -0.794636 0.072221 -0.499938 -0.336749 4.07705 2.95125 1.5873  21
104 3 -58.4818 47.6191 0.732651 0.483109 -0.723094 -0.0703967 0.488657 2.8725 3.1959 1.62585  21
105 3 -53.1545 45.9286 13.1389 0.871777 0.444174 -0.0404411 -0.20268 2.8725 3.1959 1.62585  21
106 1 -42.251 45.2494 5.515 -0.34024 0.319595 -0.791206 -0.395081 6.6359 2.79015 1.64195  22
107 2 -39.429 46.6696 12.1169 0.499208 -0.236497 0.585072 -0.59376 4.07705 2.95125 1.5873  22
108 2 -45.9799 41.19 0.229256 -0.637209 0.275579 0.702176 0.158021 4.07705 2.95125 1.5873  22
109 3 -36.4872 44.9228 9.1074 -0.617246 0.403414 0.30196 0.604223 2.8725 3.1959 1.62585  22
110 3 -45.9032 45.6463 -0.206182 0.0259525 0.28779 -0.909247 0.299623 2.8725 3.1959 1.62585  22
111 1 -12.1205 28.8933 0.20727 0.52097 -0.842436 0.0800176 -0.111757 6.6359 2.79015 1.64195  23
112 2 -18.3833 33.1355 0.265731 0.251307 0.907826 0.0249297 -0.334778 4.07705 2.95125 1.5873  23
113 2 -4.12753 29.7419 0.259727 0.374146 0.0802406 0.057925 0.922074 4.07705 2.95125 1.5873  23
114 3 -18.6684 28.3378 -0.059827 0.414236 -0.469973 0.030602 0.778844 2.8725 3.1959 1.62585  23
115 3 -6.36116 27.3761 3.77821 -0.406374 -0.804095 -0.30443 -0.309215 2.8725 3.1959 1.62585  23
116 1 3.20229 32.6927 1.9618 0.0390781 0.948051 0.303521 -0.0868736 6.6359 2.79015 1.64195  24
117 2 -1.31119 26.8094 4.40226 -0.911358 0.26113 0.270488 -0.167553 4.07705 2.95125 1.5873  24
118 2 9.92448 36.0245 -0.370423 0.0863868 -0.285465 0.810383 0.504308 4.07705 2.95125 1.5873  24
119 3 -2.79631 31.1608 4.11268 0.599296 0.483467 -0.610721 0.184726 2.8725 3.1959 1.62585  24
120 3 6.6554 39.0562 0.743086 -0.87826 0.0539553 -0.473515 -0.0391252 2.8725 3.1959 1.62585  24
121 1 17.2934 27.0644 0.72854 -0.289223 -0.850309 0.413249 0.150165 6.6359 2.79015 1.64195  25
122 2 10.7952 30.9605 -0.0707981 0.688162 -0.463615 -0.227968 -0.509436 4.07705 2.95125 1.5873  25
123 2 22.6873 22.4583 2.17555 -0.478642 -0.0246654 0.458348 -0.748472 4.07705 2.95125 1.5873  25
124 3 14.6556 33.1284 0.0574004 -0.420385 0.107228 0.90026 0.0362155 2.8725 3.1959 1.62585  25
125 3 18.7977 20.4803 1.3574 0.103343 0.861298 -0.107562 0.485713 2.8725 3.1959 1.62585  25
126 1 -48.6549 -42.683 2.16104 0.882031 0.0890655 0.231954 -0.400357 6.6359 2.79015 1.64195  26
127 2 -50.8653 -36.4132 6.12499 0.0352083 0.755421 -0.116324 -0.64387 4.07705 2.95125 1.5873  26
128 2 -42.6852 -46.6723 0.0310043 -0.538676 -0.2694 0.52123 -0.604625 4.07705 2.95125 1.5873  26
129 3 -53.8545 -39.8416 5.31349 0.560083 -0.133816 0.213268 0.789251 2.8725 3.1959 1.62585  26
130 3 -47.0086 -48.5987 -0.00441172 -0.10008 0.910091 -0.221786 0.335454 2.8725 3.1959 1.62585  26
131 1 -30.3305 -47.6669 5.86366 0.338913 0.838787 -0.294458 0.308008 6.6359 2.79015 1.64195  27
132 2 -36.5068 -44.581 2.07976 -0.243325 0.883949 0.268584 0.295448 4.07705 2.95125 1.5873  27
133 2 -26.043 -52.1377 10.5759 0.705444 -0.178451 0.593027 0.344706 4.07705 2.95125 1.5873  27
134 3 -32.7744 -45.4963 -0.0149485 0.384409 -0.41259 -0.733657 0.37914 2.8725 3.1959 1.62585  27
135 3 -26.1007 -47.1501 11.1781 -0.925377 -0.261067 0.0415602 0.271651 2.8725 3.1959 1.62585  27
136 1 -23.5278 -55.4062 3.41784 0.70988 -0.670829 0.0149471 -0.21409 6.6359 2.79015 1.64195  28
137 2 -29.0368 -50.3202 1.79663 0.216143 0.969753 -0.094902 -0.0620918 4.07705 2.95125 1.5873  28
138 2 -16.5318 -56.4593 3.86712 0.403433 0.140383 0.094507 0.899224 4.07705 2.95125 1.5873  28
139 3 -29.5807 -54.8668 1.11132 0.421549 -0.499676 -0.0343585 0.755937 2.8725 3.1959 1.62585  28
140 3 -18.6156 -58.1721 7.40914 -0.418955 -0.772029 -0.386804 -0.280769 2.8725 3.1959 1.62585  28
141 1 6.68801 -57.0352 5.41496 -0.844221 0.489646 0.210346 -0.0573828 6.6359 2.79015 1.64195  29
142 2 -0.357824 -59.2207 4.5174 -0.245756 0.833955 0.493223 -0.0292305 4.07705 2.95125 1.5873  29
143 2 13.7231 -54.0722 5.17947 0.127355 0.177608 0.123105 0.96803 4.07705 2.95125 1.5873  29
144 3 1.97996 -58.4719 0.956315 0.338802 -0.191909 -0.670837 0.63116 2.8725 3.1959 1.62585  29
145 3 12.8215 -57.0895 8.75084 -0.338115 -0.703885 -0.494735 -0.381394 2.8725 3.1959 1.62585  29
146 1 26.3688 -56.6864 6.36101 -0.528134 0.69123 -0.492845 0.0194677 6.6359 2.79015 1.64195  30
147 2 23.5866 -49.5915 8.03573 0.414958 0.416742 -0.152188 -0.794339 4.07705 2.95125 1.5873  30
148 2 29.0889 -63.3359 3.81617 -0.24161 0.170819 0.954803 -0.0282422 4.07705 2.95125 1.5873  30
149 3 23.0948 -53.221 11.0298 0.263818 0.0336207 0.587046 0.764622 2.8725 3.1959 1.62585  30
150 3 28.7336 -59.7714 0.777448 -0.371704 0.280157 -0.663801 0.58542 2.8725 3.1959 1.62585  30
151 1 -47.6324 -26.4769 1.14904 0.845099 0.0138988 0.0881753 -0.527104 6.6359 2.79015 1.64195  31
152 2 -48.8677 -19.0361 0.634425 0.2309 0.620701 -0.364742 -0.654507 4.07705 2.95125 1.5873  31
153 2 -45.8295 -34.0358 0.449123 0.414795 0.317358 0.839555 0.14959 4.07705 2.95125 1.5873  31
154 3 -52.0656 -21.7171 2.33401 0.584814 -0.151342 0.495536 0.624125 2.8725 3.1959 1.62585  31
155 3 -42.5104 -30.7319 0.117838 -0.550491 -0.300227 -0.448389 0.637001 2.8725 3.1959 1.62585  31
156 1 -28.0013 -24.9366 1.83717 0.713929 -0.226734 0.411659 -0.51907 6.6359 2.79015 1.64195  32
157 2 -30.126 -19.0636 5.62235 -0.511117 0.778643 -0.332227 0.148661 4.07705 2.95125 1.5873  32
158 2 -25.0252 -31.4765 -0.262946 0.71611 0.231206 -0.356465 0.553772 4.07705 2.95125 1.5873  32
159 3 -29.3644 -18.2218 1.0754 0.782943 -0.268213 -0.542253 0.144995 2.8725 3.1959 1.62585  32
160 3 -29.6853 -31.6395 1.05928 -0.19036 -0.905156 0.345208 -0.159019 2.8725 3.1959 1.62585  32
161 1 -7.11562 -29.3207 1.54359 0.0754064 0.943071 0.323591 -0.0148586 6.6359 2.79015 1.64195  33
162 2 -13.5109 -33.1955 -0.224525 0.821764 0.542891 0.15614 -0.074792 4.07705 2.95125 1.5873  33
163 2 -0.201938 -26.457 0.643785 0.0934998 -0.419051 0.802523 0.41426 4.07705 2.95125 1.5873  33
164 3 -11.8096 -33.9815 3.66629 -0.21661 -0.655909 0.311653 0.652485 2.8725 3.1959 1.62585  33
165 3 -3.55417 -23.8364 0.745473 -0.881149 0.116962 -0.457499 -0.0243157 2.8725 3.1959 1.62585  33
166 1 16.5666 -27.5175 5.01097 -0.23221 0.929586 -0.265789 0.10632 6.6359 2.79015 1.64195  34
167 2 11.5374 -21.9235 5.31566 0.00763649 0.954035 -0.0555558 -0.294401 4.07705 2.95125 1.5873  34
168 2 22.5218 -32.6613 3.78237 0.48017 0.0899532 0.725416 0.484889 4.07705 2.95125 1.5873  34
169 3 10.1032 -25.8835 3.38258 0.55952 -0.451854 -0.00116284 0.694812 2.8725 3.1959 1.62585  34
170 3 23.443 -28.6989 6.44847 -0.712258 -0.476779 -0.39919 0.325605 2.8725 3.1959 1.62585  34
171 1 43.3329 -25.8996 4.81049 0.474128 0.555719 0.349222 0.586876 6.6359 2.79015 1.64195  35
172 2 43.1433 -33.6336 3.9607 -0.163266 0.412465 0.881623 -0.161115 4.07705 2.95125 1.5873  35
173 2 46.211 -19.541 8.21886 0.309423 -0.739165 0.59268 0.0813835 4.07705 2.95125 1.5873  35
174 3 43.6768 -31.3129 0.422169 -0.184838 0.201646 -0.641008 0.717135 2.8725 3.1959 1.62585  35
175 3 43.9237 -19.4386 4.4073 -0.916988 0.339728 0.0908676 -0.18831 2.8725 3.1959 1.62585  35
176 1 -44.548 -4.31798 4.48974 0.884272 -0.00887312 -0.293737 -0.36291 6.6359 2.79015 1.64195  36
177 2 -46.4988 1.55623 -0.146181 0.312753 0.903376 -0.290964 -0.0379046 4.07705 2.95125 1.5873  36
178 2 -40.3196 -9.66718 8.41517 -0.513441 0.00571748 -0.857887 0.019366 4.07705 2.95125 1.5873  36
179 3 -49.1819 -2.2764 0.00545647 0.520092 -0.678871 0.199452 0.47839 2.8725 3.1959 1.62585  36
180 3 -38.3467 -5.87061 6.96304 0.763104 0.113269 0.252373 -0.584081 2.8725 3.1959 1.62585  36
181 1 -20.8916 -9.81131 6.01721 0.751668 -0.4063 0.518702 -0.0293903 6.6359 2.79015 1.64195  37
182 2 -25.1613 -8.13209 12.1835 -0.877331 0.0824231 -0.221182 0.417821 4.07705 2.95125 1.5873  37
183 2 -15.9288 -13.0381 1.36376 0.512642 0.3162 -0.730145 0.322653 4.07705 2.95125 1.5873  37
184 3 -21.3006 -6.15439 11.7625 0.60496 0.0277168 -0.708729 -0.361882 2.8725 3.1959 1.62585  37
185 3 -20.5571 -13.2007 0.305977 0.290827 -0.814347 0.437934 -0.245913 2.8725 3.1959 1.62585  37
186 1 -10.1313 -7.61123 5.73783 -0.313359 0.703484 -0.620202 -0.149216 6.6359 2.79015 1.64195  38
187 2 -9.01595 -2.45058 11.4861 -0.314164 0.726434 -0.271559 -0.547586 4.07705 2.95125 1.5873  38
188 2 -10.8459 -12.509 0.0637905 0.286883 0.571578 0.610708 0.466939 4.07705 2.95125 1.5873  38
189 3 -13.1354 -3.03315 9.65124 0.825956 0.0698725 0.0564385 0.556534 2.8725 3.1959 1.62585  38
190 3 -6.90009 -12.1882 2.00474 -0.292191 -0.61108 -0.46819 0.567453 2.8725 3.1959 1.62585  38
191 1 6.83448 -16.0041 5.56338 0.740887 0.31339 0.49797 0.323879 6.6359 2.79015 1.64195  39
192 2 4.82156 -20.6909 10.8446 -0.194598 0.539719 0.608774 -0.547932 4.07705 2.95125 1.5873  39
193 2 10.8712 -10.0716 2.8786 -0.106968 -0.774574 0.619282 -0.0712947 4.07705 2.95125 1.5873  39
194 3 4.5835 -22.3492 6.70807 0.137901 0.260979 -0.275809 0.914769 2.8725 3.1959 1.62585  39
195 3 7.33403 -12.1442 0.134998 -0.694361 0.698616 -0.143467 -0.0959999 2.8725 3.1959 1.62585  39
196 1 28.1777 -18.5241 -0.0157349 0.934908 -0.103749 0.0244088 -0.338508 6.6359 2.79015 1.64195  40
197 2 24.1319 -12.1458 -0.0836158 0.233369 0.885839 -0.13791 -0.376576 4.07705 2.95125 1.5873  40
198 2 34.8077 -22.0241 0.564947 0.442538 0.0449623 -0.495755 0.745899 4.07705 2.95125 1.5873  40
199 3 21.7998 -16.2432 -0.370729 0.460985 -0.354909 0.241877 0.776549 2.8725 3.1959 1.62585  40
200 3 30.7053 -24.4033 -0.200227 -0.0413325 -0.840083 0.145509 -0.52094 2.8725 3.1959 1.62585  40
201 1 -47.1323 23.2788 3.5365 -0.956284 0.197637 0.202022 0.0751504 6.6359 2.79015 1.64195  41
202 2 -54.5009 22.2208 2.42255 -0.611704 0.62515 0.455327 0.166383 4.07705 2.95125 1.5873  41
203 2 -40.6578 24.2755 7.47174 0.123825 -0.013637 -0.298229 0.94633 4.07705 2.95125 1.5873  41
204 3 -52.4019 25.4207 0.294548 0.27094 0.0174909 -0.899699 0.341799 2.8725 3.1959 1.62585  41
205 3 -42.2843 20.1935 7.67641 -0.15443 -0.654361 -0.318982 -0.667992 2.8725 3.1959 1.62585  41
206 1 -24.8456 9.88806 -0.017551 0.347438 -0.687549 0.532953 -0.350035 6.6359 2.79015 1.64195  42
207 2 -27.559 16.7871 -0.00654566 0.539078 -0.475423 -0.0269206 -0.694725 4.07705 2.95125 1.5873  42
208 2 -23.6782 3.49572 3.78037 -0.347064 0.353585 0.710195 -0.500147 4.07705 2.95125 1.5873  42
209 3 -23.0379 16.4502 0.192572 -0.381189 0.367596 0.826427 0.191277 2.8725 3.1959 1.62585  42
210 3 -25.9752 3.46775 -0.117587 0.0442631 0.487437 -0.374285 0.787627 2.8725 3.1959 1.62585  42
211 1 -12.9679 1.11369 4.62622 0.418684 0.862709 0.00670416 -0.283534 6.6359 2.79015 1.64195  43
212 2 -19.8494 1.90817 7.71083 0.775101 0.313229 0.217763 -0.503671 4.07705 2.95125 1.5873  43
213 2 -7.47238 -2.24777 0.0997189 -0.0142945 0.0608875 0.913252 0.402565 4.07705 2.95125 1.5873  43
214 3 -16.3034 1.17494 10.5178 -0.267746 -0.256471 0.605286 0.704389 2.8725 3.1959 1.62585  43
215 3 -6.85514 2.17377 1.39545 -0.671699 -0.153192 -0.655853 0.30856 2.8725 3.1959 1.62585  43
216 1 5.09576 13.9466 3.64523 -0.20517 0.950883 0.147525 -0.178784 6.6359 2.79015 1.64195  44
217 2 -1.97459 12.1826 6.08933 0.190285 0.806647 0.471583 -0.3012 4.07705 2.95125 1.5873  44
218 2 12.2496 15.8546 0.52663 0.145099 -0.106706 0.63831 0.748412 4.07705 2.95125 1.5873  44
219 3 0.18304 8.85102 3.62563 0.0880557 -0.184385 -0.123254 0.971111 2.8725 3.1959 1.62585  44
220 3 10.4911 18.4746 4.16562 -0.635219 -0.376502 -0.670967 -0.0674305 2.8725 3.1959 1.62585  44
221 1 22.3823 8.51837 3.17941 -0.0181388 -0.939762 0.336125 -0.0594852 6.6359 2.79015 1.64195  45
222 2 15.4039 11.6026 1.78982 0.612613 -0.64582 -0.211107 -0.403803 4.07705 2.95125 1.5873  45
223 2 28.5336 5.38924 6.3411 -0.101837 0.0148309 0.772109 -0.627102 4.07705 2.95125 1.5873  45
224 3 19.1268 13.4669 -0.0205839 -0.408043 0.195139 0.8846 -0.113594 2.8725 3.1959 1.62585  45
225 3 26.3623 3.27574 2.6624 -0.200541 0.677035 -0.1983 0.679768 2.8725 3.1959 1.62585  45
226 1 -57.6899 43.221 5.26973 0.777339 -0.540574 0.215964 0.2385 6.6359 2.79015 1.64195  46
227 2 -64.6132 41.6842 7.68409 0.801663 0.365679 0.243872 -0.405144 4.07705 2.95125 1.5873  46
228 2 -51.9054 42.3177 0.909978 -0.0058319 -0.169015 0.928415 0.330825 4.07705 2.95125 1.5873  46
229 3 -61.0115 40.8885 10.4682 -0.284887 -0.38554 0.465892 0.743735 2.8725 3.1959 1.62585  46
230 3 -53.9014 46.5135 0.713528 -0.691741 0.238932 -0.652256 0.197403 2.8725 3.1959 1.62585  46
231 1 -22.4342 37.0816 11.0252 0.248777 -0.957739 0.143069 0.019436 6.6359 2.79015 1.64195  47
232 2 -28.6238 41.0737 13.4048 0.120219 0.869922 0.0991224 -0.467929 4.07705 2.95125 1.5873  47
233 2 -15.5943 34.8942 8.01663 0.351216 0.198746 0.563093 0.721161 4.07705 2.95125 1.5873  47
234 3 -29.1932 36.4933 12.4538 0.43722 -0.130581 0.0182018 0.889638 2.8725 3.1959 1.62585  47
235 3 -15.6667 36.4995 12.3804 -0.569397 -0.635608 -0.51679 0.0686912 2.8725 3.1959 1.62585  47
236 1 -5.45092 35.5577 5.6783 0.197289 0.808742 0.330518 -0.444714 6.6359 2.79015 1.64195  48
237 2 -7.03363 30.8011 11.2702 -0.853625 0.356929 0.0218439 -0.378747 4.07705 2.95125 1.5873  48
238 2 -4.61472 40.0378 -0.220438 -0.0106947 -0.704384 -0.0548663 -0.707614 4.07705 2.95125 1.5873  48
239 3 -9.97752 34.3182 10.4664 0.729869 0.415187 -0.426814 0.335768 2.8725 3.1959 1.62585  48
240 3 -1.18665 36.0935 0.648478 -0.196471 0.817459 0.53022 -0.109664 2.8725 3.1959 1.62585  48
241 1 10.9405 33.2709 4.56559 0.85139 -0.343884 -0.0779287 0.388339 6.6359 2.79015 1.64195  49
242 2 6.25184 27.5062 4.1064 0.953722 0.279043 0.0922381 0.063569 4.07705 2.95125 1.5873  49
243 2 15.2621 39.2085 3.7223 -0.0787778 0.414133 -0.229646 0.87724 4.07705 2.95125 1.5873  49
244 3 7.47969 28.9373 7.93773 -0.364784 -0.657572 0.424345 0.504443 2.8725 3.1959 1.62585  49
245 3 17.6237 35.1499 3.71588 0.183152 -0.763057 -0.553552 -0.278891 2.8725 3.1959 1.62585  49
246 1 25.8694 26.2323 0.747 0.923996 -0.0252912 0.126513 -0.35998 6.6359 2.79015 1.64195  50
247 2 21.2172 31.0342 4.23909 0.515164 -0.852337 0.0754932 -0.0492813 4.07705 2.95125 1.5873  50
248 2 29.3521 19.3441 0.499273 0.3316 0.240777 0.88086 0.236968 4.07705 2.95125 1.5873  50
249 3 21.9997 31.8797 -0.27292 -0.719188 0.196525 0.581005 -0.326464 2.8725 3.1959 1.62585  50
250 3 31.9994 23.579 0.798714 -0.676303 -0.313432 -0.396178 0.536114 2.8725 3.1959 1.62585  50
251 1 -60.9401 -52.574 6.8625 0.877082 -0.0495892 -0.477775 0.000160145 6.6359 2.79015 1.64195  51
252 2 -65.7116 -55.3593 1.20866 0.544173 -0.40776 -0.671691 -0.294004 4.07705 2.95125 1.5873  51
253 2 -58.8695 -50.3297 13.8899 -0.195663 -0.163609 -0.411733 0.874885 4.07705 2.95125 1.5873  51
254 3 -63.4774 -51.0647 0.725803 0.0817117 -0.0571836 0.932534 -0.347035 2.8725 3.1959 1.62585  51
255 3 -58.187 -54.8845 12.3077 0.0155243 -0.433323 -0.2355 -0.869787 2.8725 3.1959 1.62585  51
256 1 -30.1116 -42.9549 2.78408 -0.724613 -0.629867 0.139154 0.242569 6.6359 2.79015 1.64195  52
257 2 -35.6413 -38.142 4.98383 0.294688 -0.952595 0.0117789 0.0747145 4.07705 2.95125 1.5873  52
258 2 -23.9482 -45.996 -0.077075 0.538624 0.267699 0.0650554 0.796235 4.07705 2.95125 1.5873  52
259 3 -35.9161 -39.5107 0.904284 -0.704366 0.259136 0.407083 -0.520578 2.8725 3.1959 1.62585  52
260 3 -25.3914 -47.4978 3.74596 -0.313586 -0.922453 -0.176417 -0.140074 2.8725 3.1959 1.62585  52
261 1 -14.977 -52.681 1.36155 0.962705 0.0825785 0.0450343 -0.253678 6.6359 2.79015 1.64195  53
262 2 -20.0055 -46.8813 1.78184 -0.213973 -0.858832 0.0642138 0.460977 4.07705 2.95125 1.5873  53
263 2 -9.90165 -58.2089 -0.201763 -0.265598 -0.166193 -0.876603 -0.365247 4.07705 2.95125 1.5873  53
264 3 -21.5249 -51.1287 1.94448 -0.426887 0.293227 -0.259195 -0.815232 2.8725 3.1959 1.62585  53
265 3 -8.51533 -54.0098 0.36831 0.709891 0.220535 0.4433 -0.500902 2.8725 3.1959 1.62585  53
266 1 5.39249 -54.2177 0.886912 -0.298062 -0.94803 0.110063 -0.0168762 6.6359 2.79015 1.64195  54
267 2 -2.43643 -54.6646 0.72233 0.820154 -0.424105 -0.288325 -0.253674 4.07705 2.95125 1.5873  54
268 2 12.8923 -55.0897 0.0688252 -0.394954 -0.297847 0.0905139 -0.864352 4.07705 2.95125 1.5873  54
269 3 -0.32651 -50.6187 0.499649 -0.428765 -0.0665831 0.89222 -0.125181 2.8725 3.1959 1.62585  54
270 3 10.48 -58.3056 2.05759 0.130715 0.938567 0.160182 0.276311 2.8725 3.1959 1.62585  54
271 1 26.9293 -50.2054 6.02277 0.259811 -0.781595 0.146281 -0.547913 6.6359 2.79015 1.64195  55
272 2 24.9092 -44.5175 1.26163 0.119728 0.950812 -0.124217 0.257278 4.07705 2.95125 1.5873  55
273 2 29.8895 -55.1334 10.7412 0.793684 -0.146171 0.336758 0.485071 4.07705 2.95125 1.5873  55
274 3 25.3391 -48.3787 -0.261359 0.526511 -0.739131 -0.244526 0.341582 2.8725 3.1959 1.62585  55
275 3 27.5051 -51.4859 12.675 -0.823969 -0.549188 0.138575 -0.0162621 2.8725 3.1959 1.62585  55
276 1 -45.5754 -31.5531 6.55213 0.468349 -0.841752 0.257142 0.0773333 6.6359 2.79015 1.64195  56
277 2 -51.1139 -27.8108 10.1353 -0.210192 0.927476 0.0472038 -0.305579 4.07705 2.95125 1.5873  56
278 2 -38.1898 -33.8135 6.03996 0.244389 0.228094 -0.813824 0.475329 4.07705 2.95125 1.5873  56
279 3 -52.5122 -30.7331 6.30802 0.620991 -0.177607 -0.186041 0.740415 2.8725 3.1959 1.62585  56
280 3 -41.0903 -34.9649 2.69934 0.400498 -0.787888 0.21975 -0.412969 2.8725 3.1959 1.62585  56
281 1 -22.258 -35.2632 4.33008 0.69501 -0.498363 -0.437782 0.277387 6.6359 2.79015 1.64195  57
282 2 -26.0192 -40.1248 0.235596 0.838308 0.503064 0.0900282 0.189898 4.07705 2.95125 1.5873  57
283 2 -16.6714 -30.5353 6.2014 0.228162 -0.672587 0.678053 0.189245 4.07705 2.95125 1.5873  57
284 3 -25.3896 -41.0901 4.7508 -0.195843 -0.77218 0.311886 0.517795 2.8725 3.1959 1.62585  57
285 3 -20.5845 -29.1237 3.60409 -0.941279 0.203434 -0.260984 -0.0670452 2.8725 3.1959 1.62585  57
286 1 -8.09806 -24.5797 3.81635 0.956935 0.0573809 -0.269916 0.0901597 6.6359 2.79015 1.64195  58
287 2 -14.5032 -22.8591 0.367699 0.219476 0.968162 0.120149 0.00748222 4.07705 2.95125 1.5873  58
288 2 -0.94127 -24.6406 6.08537 0.424612 -0.160875 0.243832 0.856954 4.07705 2.95125 1.5873  58
289 3 -12.9362 -27.3329 0.000215929 0.280014 -0.635418 -0.175792 0.697806 2.8725 3.1959 1.62585  58
290 3 -4.33301 -24.2843 9.51197 -0.744218 -0.562695 -0.2632 -0.245438 2.8725 3.1959 1.62585  58
291 1 9.95229 -31.9514 4.94804 -0.143329 -0.929841 0.217353 0.26002 6.6359 2.79015 1.64195  59
292 2 6.12105 -26.901 8.80488 -0.332713 0.928744 -0.109173 -0.121727 4.07705 2.95125 1.5873  59
293 2 16.7913 -33.9344 1.75519 0.429691 0.416237 -0.355272 0.718258 4.07705 2.95125 1.5873  59
294 3 5.11613 -27.3993 4.11498 0.79849 -0.233842 -0.327428 0.447798 2.8725 3.1959 1.62585  59
295 3 13.8511 -37.2097 3.3127 -0.0190966 -0.972951 -0.123119 -0.194534 2.8725 3.1959 1.62585  59
296 1 35.3609 -33.5668 4.95036 0.865826 -0.195244 -0.0446784 -0.458507 6.6359 2.79015 1.64195  60
297 2 29.5406 -28.8169 3.50255 -0.581275 0.64575 0.121816 0.479883 4.07705 2.95125 1.5873  60
298 2 41.3354 -37.4808 7.30547 0.557079 -0.0938383 -0.0882133 0.820412 4.07705 2.95125 1.5873  60
299 3 33.8233 -27.6145 1.76224 0.483782 -0.296489 -0.818718 0.0880394 2.8725 3.1959 1.62585  60
300 3 37.4542 -38.6385 8.53792 -0.476751 -0.787666 -0.0528212 -0.386653 2.8725 3.1959 1.62585  60
301 1 -48.6746 -5.77508 7.52587 -0.663509 -0.298209 0.419925 -0.54267 6.6359 2.79015 1.64195  61
302 2 -49.2529 -8.17833 0.417542 0.320757 0.722721 0.405169 0.458942 4.07705 2.95125 1.5873  61
303 2 -47.9271 -3.11734 14.7595 -0.566487 0.690487 -0.293715 -0.340664 4.07705 2.95125 1.5873  61
304 3 -45.8948 -9.38203 2.4562 -0.141167 -0.728194 -0.507591 0.438357 2.8725 3.1959 1.62585  61
305 3 -50.6931 -1.162 11.9073 0.905859 0.0845065 -0.299212 0.287662 2.8725 3.1959 1.62585  61
306 1 -22.7848 -13.7052 4.53233 -0.874009 0.220848 -0.1237 0.414768 6.6359 2.79015 1.64195  62
307 2 -28.4542 -8.33133 6.23269 -0.589102 0.688731 0.0730478 0.416259 4.07705 2.95125 1.5873  62
308 2 -16.4017 -18.4467 4.64414 0.599047 0.119306 -0.278846 0.741049 4.07705 2.95125 1.5873  62
309 3 -24.5604 -7.72639 4.14427 0.564196 -0.259232 -0.783129 -0.0345001 2.8725 3.1959 1.62585  62
310 3 -21.2459 -20.1829 5.19386 -0.110807 -0.944088 0.165123 -0.262972 2.8725 3.1959 1.62585  62