ITEM: TIMESTEP
12640000
ITEM: NUMBER OF ATOMS
2000
ITEM: BOX BOUNDS pp pp pp
-151.626 151.626
-151.626 151.626
-151.626 151.626
ITEM: ATOMS id type xu yu zu c_q[1] c_q[2] c_q[3] c_q[4] c_shape[1] c_shape[2] c_shape[3] vx vy vz angmomx angmomy angmomz mol
     1 1    -23.40324    -19.63648     31.60698     0.062545    -0.262394    -0.941448    -0.202270     1.865150     1.865150     2.498350    -0.004323     0.000041    -0.002695     0.172554     0.143058     0.214149     1
     2 2    -22.56624    -19.96648     29.43698    -0.221167     0.847816     0.481562    -0.019789     1.865150     1.865150     2.498350     0.000431     0.000224    -0.002049    -0.027497    -0.061191    -0.022751     1
     3 1    119.29084    -81.28866   -126.68134    -0.238069     0.206738    -0.427688     0.847151     1.865150     1.865150     2.498350    -0.001700    -0.000949    -0.004373     0.172731     0.085995    -0.063054     2
     4 2    120.60084    -83.18866   -127.41134    -0.089087     0.351772    -0.342320     0.866681     1.865150     1.865150     2.498350     0.001209    -0.005453     0.004207    -0.035624     0.105055     0.024650     2
     5 1    110.53894    -45.93782     -5.40704    -0.753622     0.523625    -0.214939     0.334174     1.865150     1.865150     2.498350    -0.001906    -0.002051     0.004204    -0.085527    -0.226513     0.221979     3
     6 2    109.98894    -44.25782     -3.76704    -0.939453     0.045065    -0.184744    -0.285073     1.865150     1.865150     2.498350    -0.004209     0.001339     0.000203     0.006449     0.080342     0.007989     3
     7 1     54.24218    -21.70782     41.95028    -0.267972     0.574467    -0.588032    -0.502391     1.865150     1.865150     2.498350    -0.001931    -0.000738    -0.002119     0.166611    -0.107877     0.019030     4
     8 2     54.48218    -19.34782     42.55028     0.268547    -0.149240    -0.820698    -0.481730     1.865150     1.865150     2.498350    -0.000661    -0.003464     0.003838     0.085745    -0.167604     0.042979     4
     9 1   -116.73424    -56.55462    -25.17894     0.008503    -0.890166     0.103817    -0.443569     1.865150     1.865150     2.498350     0.007134     0.001624    -0.000961     0.106311    -0.010440    -0.058225     5
    10 2   -116.00624    -56.22862    -27.49894    -0.367194     0.403307    -0.780492     0.305522     1.865150     1.865150     2.498350    -0.001841     0.001549     0.002395     0.178152     0.009649    -0.037002     5
    11 1     15.12950    -48.59114    111.39218     0.090648    -0.975847     0.125424     0.154190     1.865150     1.865150     2.498350    -0.006882     0.000294    -0.003038     0.099572     0.072853    -0.189442     6
    12 2     15.94950    -47.76814    109.37218     0.162255    -0.502862    -0.848939    -0.010285     1.865150     1.865150     2.498350     0.004520     0.000124     0.000090    -0.052870     0.095662    -0.012840     6
    13 1     44.07886     -8.63724    -22.58028     0.547726     0.373584     0.091807     0.742969     1.865150     1.865150     2.498350    -0.000690     0.001072     0.000127     0.021035     0.093798    -0.110019     7
    14 2     46.05286     -9.96124    -22.50028    -0.316365     0.323915    -0.187541     0.871677     1.865150     1.865150     2.498350    -0.000665     0.001347     0.002297     0.006308    -0.164054    -0.063670     7
    15 1    -80.22024    -22.57916    109.84402    -0.471934     0.544006    -0.408488    -0.560780     1.865150     1.865150     2.498350    -0.001855     0.002399     0.001854    -0.121921     0.053956     0.003953     8
    16 2    -79.59724    -20.61916    111.11402    -0.257756     0.119511     0.742265     0.606895     1.865150     1.865150     2.498350     0.000285    -0.000572    -0.006588    -0.271627     0.101737     0.034947     8
    17 1   -104.21352    119.48190    -13.92760     0.537961    -0.672725     0.401501    -0.311184     1.865150     1.865150     2.498350     0.001254     0.001820     0.000118    -0.018794    -0.140957     0.038076     9
    18 2   -103.28352    121.64190    -13.93760    -0.605973     0.091521    -0.762174    -0.208594     1.865150     1.865150     2.498350    -0.000071     0.001767     0.001731     0.168381    -0.189361     0.080453     9
    19 1    -25.45352    141.53084    -94.82922    -0.648754    -0.008527     0.517078    -0.558280     1.865150     1.865150     2.498350     0.003785     0.004107    -0.001537    -0.045268     0.208246     0.036595    10
    20 2    -27.81352    141.37084    -95.07922    -0.655308     0.051481     0.542984    -0.522580     1.865150     1.865150     2.498350     0.000406    -0.002566     0.001120    -0.028308     0.126707     0.104906    10
    21 1     92.04710    121.54056    104.25458     0.125031    -0.214540    -0.333470     0.909471     1.865150     1.865150     2.498350     0.000464     0.000096     0.000848     0.200992     0.074075     0.160518    11
    22 2     92.42530    120.10056    105.91458    -0.686252    -0.484132    -0.026103     0.542211     1.865150     1.865150     2.498350    -0.002159    -0.003537     0.006331    -0.091990    -0.054417    -0.112145    11
    23 1    124.54380    120.75380    -19.22614     0.441409    -0.529330    -0.724424     0.013324     1.865150     1.865150     2.498350     0.000633     0.007022    -0.002150     0.074515     0.006539    -0.215801    12
    24 2    122.80380    120.43380    -20.76614     0.302496    -0.866289    -0.015864     0.397225     1.865150     1.865150     2.498350    -0.000961     0.005272     0.002303    -0.173955    -0.117584     0.029120    12
    25 1     10.63190     24.57134    122.10028     0.906757     0.333485    -0.257778    -0.011388     1.865150     1.865150     2.498350     0.002885     0.001157     0.003527     0.160202     0.091057     0.023042    13
    26 2      8.52190     23.39134    121.99028     0.303746    -0.413647    -0.099666     0.852468     1.865150     1.865150     2.498350    -0.002455    -0.001893    -0.002817     0.054170    -0.033473    -0.164317    13
    27 1    -68.60598     88.02782     16.79648     0.107087     0.326894    -0.213507     0.914378     1.865150     1.865150     2.498350     0.003022    -0.002139     0.001262    -0.074843     0.140379    -0.001770    14
    28 2    -68.27598     88.25782     19.12648     0.728481     0.315431     0.251251     0.553797     1.865150     1.865150     2.498350    -0.002497    -0.003905    -0.001239     0.009728     0.043135    -0.013297    14
    29 1     22.11562    137.74662     93.40620    -0.005167    -0.839038    -0.360846    -0.407160     1.865150     1.865150     2.498350     0.000773    -0.000787    -0.003769    -0.191229     0.085834     0.109009    15
    30 2     23.33162    136.12262     92.33620     0.162724    -0.711433     0.295461    -0.616512     1.865150     1.865150     2.498350     0.002622    -0.001257    -0.002178     0.051005    -0.087383     0.014718    15
    31 1    136.33268    -31.89276   -146.02598    -0.203384    -0.356456    -0.826645    -0.385010     1.865150     1.865150     2.498350     0.003297     0.000840    -0.000352     0.084392    -0.090718     0.029511    16
    32 2    136.04268    -30.11176   -147.55598    -0.410298     0.449029    -0.787780    -0.097109     1.865150     1.865150     2.498350     0.000904     0.004866    -0.002829     0.028013     0.112038     0.050009    16
    33 1     54.12866    -58.71246    -98.30112    -0.256880    -0.645673    -0.149353     0.703429     1.865150     1.865150     2.498350     0.000241    -0.002454     0.002669     0.185691    -0.191545     0.139643    17
    34 2     52.36866    -59.29246    -99.59112     0.236053     0.489611    -0.807025     0.230805     1.865150     1.865150     2.498350     0.002703    -0.002498     0.002782     0.080066     0.136548    -0.026277    17
    35 1    136.73274    123.31944     91.96106    -0.611453    -0.461099     0.626150    -0.146455     1.865150     1.865150     2.498350    -0.003331    -0.000287     0.000259    -0.287050     0.130005    -0.060354    18
    36 2    136.34274    120.97944     92.53106     0.439357     0.864507     0.019959    -0.243299     1.865150     1.865150     2.498350    -0.002788    -0.000280     0.002150     0.121475     0.050065    -0.021763    18
    37 1      3.86014     14.88376     32.91754    -0.965749     0.176954     0.185607    -0.039566     1.865150     1.865150     2.498350    -0.000094    -0.001171     0.000276     0.059294    -0.049992     0.245597    19
    38 2      2.95614     17.16676     33.53754     0.954960    -0.213653    -0.112964     0.172174     1.865150     1.865150     2.498350    -0.000317     0.002606    -0.002677     0.091679     0.151716    -0.121593    19
    39 1    -54.19380      5.81338     55.78078     0.036090    -0.024608     0.975854    -0.214010     1.865150     1.865150     2.498350    -0.001938     0.005624     0.000877     0.033484     0.035270    -0.091840    20
    40 2    -54.22380      6.81038     53.58078    -0.026814     0.089330    -0.979249     0.179921     1.865150     1.865150     2.498350     0.000296     0.002047    -0.000770    -0.238321     0.133943     0.068406    20
    41 1   -126.34352    -65.53876    -33.79542     0.351619    -0.061362     0.924846    -0.131375     1.865150     1.865150     2.498350     0.000061     0.000950    -0.001477     0.016524     0.093860     0.059572    21
    42 2   -124.31352    -66.59176    -33.71542    -0.187693    -0.822239    -0.425949    -0.327509     1.865150     1.865150     2.498350     0.000040     0.000651     0.001820     0.092453    -0.098743     0.080390    21
    43 1   -114.30286     55.29176    -34.06352    -0.362489    -0.202090    -0.615916    -0.669633     1.865150     1.865150     2.498350    -0.000989     0.000765     0.008943     0.028156    -0.016357     0.041068    22
    44 2   -112.93986     56.26376    -32.35352    -0.287334    -0.246439    -0.626905    -0.680953     1.865150     1.865150     2.498350     0.002065     0.001906    -0.003127     0.005236     0.021318     0.087067    22
    45 1   -102.51638     99.48732    -88.99300    -0.239236     0.877677    -0.049712    -0.412284     1.865150     1.865150     2.498350     0.004277     0.000838     0.005208     0.063242     0.087636     0.019724    23
    46 2   -103.57438     98.69732    -91.11810     0.355768    -0.792324    -0.305450     0.390324     1.865150     1.865150     2.498350    -0.004759     0.004564    -0.000121    -0.006850     0.054279    -0.038429    23
    47 1    -10.33324    120.78866     33.06620    -0.428662     0.308648    -0.786987    -0.318807     1.865150     1.865150     2.498350    -0.005950    -0.000273    -0.001099     0.161587     0.021284    -0.089078    24
    48 2    -10.01324    121.62866     30.84620     0.583849    -0.786460     0.084203    -0.183062     1.865150     1.865150     2.498350    -0.007451    -0.000563     0.002933    -0.176351    -0.074362     0.154865    24
    49 1    -31.31458     53.84134   -143.45190     0.063763    -0.787710     0.324394     0.519823     1.865150     1.865150     2.498350     0.002195     0.005235     0.007433    -0.031297    -0.167748     0.163244    25
    50 2    -31.57458     55.06134   -145.48190    -0.515786     0.611411     0.584235    -0.137153     1.865150     1.865150     2.498350    -0.002325     0.002825     0.003180     0.014592    -0.027288    -0.109654    25
    51 1    -95.69190    -23.14620    -39.73704     0.796026    -0.165112     0.289528     0.505226     1.865150     1.865150     2.498350    -0.003229     0.004817    -0.000889     0.014625    -0.023786     0.141498    26
    52 2    -96.33190    -21.33620    -38.46704     0.878957    -0.156400     0.208698     0.399273     1.865150     1.865150     2.498350     0.003785     0.003595    -0.000269    -0.215637    -0.121017     0.011003    26
    53 1   -151.30600    101.01056    -58.67380    -0.017574     0.347516     0.932833    -0.093525     1.865150     1.865150     2.498350    -0.000101     0.005114     0.004540     0.196880     0.055863     0.143781    27
    54 2   -152.80200    101.44056    -60.34380    -0.037123    -0.546624     0.825504    -0.135524     1.865150     1.865150     2.498350     0.004955     0.001866    -0.002936    -0.041589     0.014924     0.063139    27
    55 1     60.93592   -123.81458     79.15224     0.835361    -0.314889     0.160638    -0.420966     1.865150     1.865150     2.498350     0.000412    -0.004403    -0.002405     0.021803     0.020855     0.033186    28
    56 2     60.49592   -122.10458     80.77924    -0.806670     0.041541    -0.400068    -0.433016     1.865150     1.865150     2.498350    -0.002062     0.005339     0.003483    -0.042636     0.241564    -0.087899    28
    57 1   -109.39620    113.75500    -13.12732    -0.292670    -0.780196     0.293636     0.468420     1.865150     1.865150     2.498350    -0.001295    -0.001606     0.003590     0.006305     0.125439     0.046688    29
    58 2   -110.44620    112.93700    -15.23732    -0.303974     0.480653     0.606892    -0.555207     1.865150     1.865150     2.498350     0.001825     0.001225    -0.004068    -0.079774    -0.072918     0.081903    29
    59 1   -133.22268    -41.92524    150.03374     0.120496     0.056755     0.986474    -0.095544     1.865150     1.865150     2.498350     0.001525     0.000109     0.001913    -0.084430     0.129445     0.024058    30
    60 2   -134.42268    -42.15624    148.06374    -0.225148     0.868280    -0.441728    -0.016577     1.865150     1.865150     2.498350     0.002131    -0.001593    -0.001974     0.082131    -0.071774    -0.075049    30
    61 1     52.81408     -4.34162    -74.51246     0.379181    -0.358403    -0.302343    -0.797720     1.865150     1.865150     2.498350     0.001532     0.000667    -0.003275     0.116554    -0.063169     0.184897    31
    62 2     52.14408     -2.88562    -72.68246    -0.367220     0.083361    -0.572562    -0.728267     1.865150     1.865150     2.498350    -0.002234     0.002326     0.001271     0.002561    -0.001840     0.114499    31
    63 1    143.00762      6.95732     44.57810     0.033668     0.459883    -0.486934    -0.741802     1.865150     1.865150     2.498350    -0.002878     0.003463     0.002607    -0.088312    -0.294864    -0.010337    32
    64 2    141.00462      7.69732     43.33810     0.579720    -0.641102    -0.138433     0.483476     1.865150     1.865150     2.498350     0.000017     0.000907    -0.001715    -0.054349    -0.123734    -0.047566    32
    65 1    -97.31380     30.41648     35.65916     0.417173    -0.065201    -0.730730     0.536422     1.865150     1.865150     2.498350     0.001860     0.003403     0.000262     0.005758    -0.019313    -0.148331    33
    66 2    -99.45720     29.70648     36.46916    -0.634290    -0.584433     0.505991     0.009359     1.865150     1.865150     2.498350    -0.000185    -0.000308     0.001095     0.038447    -0.008623     0.098960    33
    67 1     69.55570    -58.23648    -95.00866    -0.434984     0.339691    -0.287273    -0.782862     1.865150     1.865150     2.498350     0.002428     0.000194     0.003971     0.113713     0.147728    -0.044169    34
    68 2     68.19570    -56.40648    -95.14866     0.869988    -0.400497    -0.169750     0.232182     1.865150     1.865150     2.498350    -0.004971    -0.000936     0.000033    -0.065416    -0.107995     0.017030    34
    69 1    144.57218     54.59514    -65.19274     0.343443     0.572204     0.739179    -0.090795     1.865150     1.865150     2.498350    -0.001658    -0.002433     0.000286    -0.132536    -0.098688     0.102189    35
    70 2    144.94218     52.11814    -65.63274    -0.277039    -0.929722     0.057958    -0.235599     1.865150     1.865150     2.498350    -0.002591    -0.002620     0.004490    -0.130523    -0.197884     0.122859    35
    71 1    -92.85972     19.40462    144.56268    -0.561922     0.330635     0.727036    -0.215275     1.865150     1.865150     2.498350    -0.004361    -0.004735    -0.004473    -0.059923     0.075706     0.159856    36
    72 2    -94.16972     21.10162    143.53268     0.537167    -0.155559    -0.819971     0.122070     1.865150     1.865150     2.498350    -0.002674    -0.002473     0.002513    -0.012603    -0.115283     0.290266    36
    73 1    -54.44376    -52.34972     93.42782    -0.684550     0.191882     0.182503    -0.679165     1.865150     1.865150     2.498350     0.001333     0.001784     0.001092    -0.093898    -0.124556    -0.061776    37
    74 2    -55.44576    -53.84972     94.99782     0.176898     0.332983    -0.124857    -0.917737     1.865150     1.865150     2.498350    -0.001014     0.001280     0.001170     0.081274     0.046041    -0.004948    37
    75 1     40.66576     20.90704   -138.18112     0.822381     0.304008     0.468003    -0.110645     1.865150     1.865150     2.498350     0.000551     0.000361    -0.001481    -0.023547    -0.142320     0.024630    38
    76 2     42.67776     21.16704   -136.94112    -0.719629    -0.444291    -0.512018    -0.150258     1.865150     1.865150     2.498350     0.000385    -0.000134    -0.005145    -0.059141     0.009962    -0.014720    38
    77 1    -22.44786    137.52024    -61.41598     0.495444    -0.097817    -0.695702    -0.510848     1.865150     1.865150     2.498350    -0.001199    -0.000022    -0.004682     0.008713     0.170573    -0.020069    39
    78 2    -21.89486    139.91424    -61.10598    -0.511567     0.302855     0.698584     0.398193     1.865150     1.865150     2.498350    -0.000808    -0.000975    -0.001522    -0.056178    -0.189326     0.135841    39
    79 1     -9.60648     75.80714    147.58078    -0.186138     0.198748    -0.458699     0.845841     1.865150     1.865150     2.498350     0.000509     0.001836     0.006841     0.160705    -0.122276    -0.125029    40
    80 2     -7.75648     74.58714    146.74078    -0.416528     0.207326    -0.446073     0.764551     1.865150     1.865150     2.498350    -0.005965     0.000378     0.001018     0.074136    -0.113832     0.054666    40
    81 1   -110.41458     88.02028     93.38062     0.212664     0.207183    -0.939007     0.173539     1.865150     1.865150     2.498350    -0.001270     0.002617    -0.001005     0.164154    -0.125674    -0.040974    41
    82 2   -112.35458     88.23028     92.07862     0.379563     0.295118    -0.853205     0.202187     1.865150     1.865150     2.498350    -0.000147     0.001264    -0.002670    -0.043046     0.101670     0.073612    41
    83 1      0.89218    121.77944    -11.41570    -0.636947    -0.017667    -0.663140    -0.392722     1.865150     1.865150     2.498350     0.001133    -0.001910    -0.005724     0.023532     0.020310    -0.205187    42
    84 2      3.04218    121.88944    -12.30570    -0.584831     0.501929    -0.232776     0.593174     1.865150     1.865150     2.498350    -0.003864     0.001147    -0.001645     0.010594    -0.152460     0.044139    42
    85 1     85.01648    149.36586     84.60876     0.678025     0.475176     0.258960    -0.497423     1.865150     1.865150     2.498350     0.003413     0.002524    -0.001456     0.021483     0.146011     0.184332    43
    86 2     85.10648    147.00486     84.08076     0.011651    -0.016529     0.439262    -0.898131     1.865150     1.865150     2.498350     0.000050    -0.003580    -0.000940     0.079823     0.037347    -0.120834    43
    87 1    -96.80186    -82.81106     11.90564     0.335787     0.136331    -0.260218    -0.894957     1.865150     1.865150     2.498350     0.000189     0.000607    -0.002433    -0.064184    -0.312465     0.212802    44
    88 2    -99.07686    -82.32106     12.55564    -0.636834     0.326150    -0.002757    -0.698613     1.865150     1.865150     2.498350     0.002851    -0.002740     0.000871     0.086757     0.063990     0.155205    44
    89 1     95.72810    -31.92620     60.53962    -0.056680     0.387719    -0.051778    -0.918575     1.865150     1.865150     2.498350    -0.000768    -0.002045    -0.000994    -0.151927     0.116511     0.091682    45
    90 2     93.93810    -33.08620     61.46162     0.284442    -0.336586    -0.057842     0.895799     1.865150     1.865150     2.498350     0.000256     0.001079    -0.001232     0.097500    -0.052180    -0.085026    45
    91 1    129.31514   -115.07190   -120.18976    -0.663225     0.322158     0.466722     0.488382     1.865150     1.865150     2.498350    -0.002861    -0.001908     0.000288     0.158687     0.126528     0.004527    46
    92 2    130.43514   -113.10190   -119.16676     0.634353    -0.237106    -0.493942    -0.545342     1.865150     1.865150     2.498350     0.001553    -0.003180    -0.001852    -0.074872    -0.005643    -0.096961    46
    93 1      7.44810     11.91028     89.95782     0.968352    -0.156997     0.192538     0.024012     1.865150     1.865150     2.498350     0.001319     0.005349     0.001136    -0.352071     0.130560     0.213659    47
    94 2      6.63810     12.37028     92.10782    -0.344538     0.037879    -0.377877    -0.858527     1.865150     1.865150     2.498350     0.002338     0.001740    -0.001643     0.065922     0.053299    -0.080042    47
    95 1    -70.44986    -86.34134   -120.83600     0.647861    -0.522497    -0.437882    -0.339900     1.865150     1.865150     2.498350    -0.001438     0.001144     0.003912     0.041039     0.189509     0.143164    48
    96 2    -72.31086    -84.94134   -121.47400    -0.688383     0.593958    -0.193522    -0.368635     1.865150     1.865150     2.498350    -0.000718     0.004183    -0.005045    -0.067526    -0.108880     0.037851    48
    97 1   -112.33386     89.56662     51.84402    -0.339152     0.616516    -0.637290    -0.314238     1.865150     1.865150     2.498350     0.004022    -0.000348    -0.001950    -0.084015     0.106743     0.036359    49
    98 2   -111.39786     90.05362     49.64402    -0.416874     0.837605     0.319148     0.150923     1.865150     1.865150     2.498350     0.004657    -0.000355    -0.001417    -0.145985    -0.042380    -0.047708    49
    99 1    -39.63620     43.69028    -90.14972    -0.463899     0.068038     0.859977     0.201514     1.865150     1.865150     2.498350     0.003391    -0.001746     0.005307     0.025826    -0.079953     0.116703    50
   100 2    -41.78620     44.83028    -89.88972    -0.079441     0.525438    -0.682520    -0.501768     1.865150     1.865150     2.498350    -0.000956    -0.004910     0.001060     0.018791     0.155893     0.006008    50
   101 1    -97.56240    -17.32490    -40.18866     0.104261    -0.631055    -0.584151    -0.499667     1.865150     1.865150     2.498350     0.004029    -0.000178    -0.003946    -0.081364     0.074332     0.005518    51
   102 2    -95.37240    -16.42560    -40.34866    -0.022916     0.610806     0.653099     0.447049     1.865150     1.865150     2.498350     0.000616    -0.001027    -0.001448     0.183733    -0.309908    -0.021742    51
   103 1    -10.65704     -8.08296     16.88134    -0.394539     0.353619    -0.500973    -0.684338     1.865150     1.865150     2.498350     0.002522    -0.000436    -0.006088    -0.010276     0.097162     0.075245    52
   104 2    -10.69704     -5.82296     15.60134    -0.792959     0.584584     0.039650    -0.167049     1.865150     1.865150     2.498350     0.000757     0.004873    -0.001456     0.027769    -0.139157     0.162705    52
   105 1     15.20124    138.79352     80.44860     0.068723    -0.327454    -0.795940     0.504510     1.865150     1.865150     2.498350     0.000589    -0.001552     0.003007     0.003213    -0.136875    -0.054924    53
   106 2     13.07624    137.97352     79.61860     0.379126     0.533290    -0.728443     0.203068     1.865150     1.865150     2.498350    -0.000057     0.003936     0.003083    -0.050651     0.042069    -0.105476    53
   107 1     42.26592     10.57976    -34.79866    -0.324879    -0.722537     0.609369    -0.032609     1.865150     1.865150     2.498350     0.002888     0.004597    -0.000543     0.066348     0.059356     0.034782    54
   108 2     42.21592      8.31776    -35.84866    -0.138778    -0.818901    -0.372844     0.413678     1.865150     1.865150     2.498350    -0.004605    -0.004723     0.002437     0.068629     0.086042    -0.110274    54
   109 1     -5.62028     96.08514     31.77850     0.784614     0.427596    -0.362812    -0.264406     1.865150     1.865150     2.498350    -0.000640    -0.002536     0.000930     0.037645     0.087273     0.015145    55
   110 2     -8.03028     96.54514     31.37150    -0.746910     0.080691     0.459876    -0.473423     1.865150     1.865150     2.498350    -0.002296     0.001202     0.003078     0.154883     0.001877     0.134386    55
   111 1   -120.94944   -133.11106    148.51078    -0.286667    -0.940717    -0.031891    -0.178485     1.865150     1.865150     2.498350    -0.000375     0.002307    -0.002087     0.053743     0.003897    -0.065187    56
   112 2   -121.99944   -133.01106    146.28078    -0.265646     0.800561    -0.537041    -0.011039     1.865150     1.865150     2.498350     0.000799    -0.000985    -0.004386    -0.052863    -0.107374     0.106216    56
   113 1    -94.21324   -150.39972     57.59276     0.874696     0.381685     0.212373    -0.210050     1.865150     1.865150     2.498350    -0.000682     0.001964    -0.000826    -0.073746    -0.221309     0.094156    57
   114 2    -93.11624   -150.46972     59.67876     0.846503     0.123518    -0.032862    -0.516813     1.865150     1.865150     2.498350    -0.001772     0.005754    -0.000533     0.021468     0.268276    -0.048026    57
   115 1   -105.67570    145.36620     -0.30570     0.419901    -0.666220    -0.165809     0.593583     1.865150     1.865150     2.498350     0.000829     0.001723    -0.004244     0.081200    -0.152465    -0.015620    58
   116 2   -107.76570    145.31620     -1.44570     0.461271    -0.698165    -0.163907     0.522426     1.865150     1.865150     2.498350     0.004954    -0.002193     0.003712    -0.109494    -0.032007    -0.310757    58
   117 1    -39.57458     13.45218    -46.37570     0.084809    -0.859374    -0.497218     0.084013     1.865150     1.865150     2.498350     0.003060    -0.001236     0.001763    -0.054393    -0.096251     0.030021    59
   118 2    -40.20458     15.04218    -48.13570     0.089777    -0.232088     0.968528     0.005296     1.865150     1.865150     2.498350    -0.003676    -0.000442     0.000791     0.060239    -0.038261     0.158298    59
   119 1    -89.93476     75.71186    -43.59810    -0.575034    -0.467593     0.651270    -0.162911     1.865150     1.865150     2.498350     0.000400     0.001508     0.000402    -0.120582    -0.135516    -0.093408    60
   120 2    -90.47976     73.65186    -42.64810    -0.447567    -0.792295    -0.038369     0.412892     1.865150     1.865150     2.498350     0.000928    -0.000196    -0.001460    -0.008210    -0.146968    -0.132300    60
   121 1     -4.72620    -93.43662   -110.44352     0.524401    -0.778836     0.142592    -0.313186     1.865150     1.865150     2.498350    -0.002641     0.004753     0.003324    -0.014330    -0.062081     0.127197    61
   122 2     -2.53620    -92.97162   -109.46352     0.155441     0.652721     0.486837     0.559271     1.865150     1.865150     2.498350     0.001007    -0.002756    -0.004277    -0.106429    -0.043363     0.079355    61
   123 1   -123.66782     76.72810    -36.15538     0.423211    -0.171418    -0.763442    -0.456799     1.865150     1.865150     2.498350    -0.000327     0.004766    -0.002953     0.158568     0.077979     0.036869    62
   124 2   -123.71782     78.74810    -35.29738     0.409266    -0.009072    -0.742021    -0.530871     1.865150     1.865150     2.498350    -0.001447    -0.003963     0.003164    -0.029508    -0.163763    -0.020248    62
   125 1     28.39352     61.24944    -36.50246     0.694822    -0.322231    -0.164812     0.621472     1.865150     1.865150     2.498350    -0.001296    -0.001220    -0.001029    -0.037754    -0.102619     0.013574    63
   126 2     28.08352     61.57944    -34.12246    -0.757304    -0.238641     0.363356     0.487354     1.865150     1.865150     2.498350     0.004912    -0.000860    -0.003660     0.125633     0.212950    -0.052096    63
   127 1   -134.07380     46.23810     -8.47950    -0.406794    -0.801356    -0.398826     0.182442     1.865150     1.865150     2.498350     0.002857     0.001721    -0.000815     0.184093    -0.061192     0.034942    64
   128 2   -135.31380     44.32810     -9.01950     0.396465     0.605207    -0.469561     0.506016     1.865150     1.865150     2.498350     0.000152    -0.000588    -0.000786    -0.126611    -0.087223     0.005669    64
   129 1     60.23296   -143.77866     45.39986     0.152891    -0.324237    -0.843399    -0.400215     1.865150     1.865150     2.498350     0.006302    -0.003838     0.000578    -0.083562     0.057462    -0.104597    65
   130 2     61.73296   -142.15866     44.70786     0.136252    -0.504092    -0.783089    -0.337783     1.865150     1.865150     2.498350    -0.000432     0.002393    -0.001000    -0.003721    -0.019360    -0.005395    65
   131 1     -9.24078    -28.73962    -70.49112    -0.018000     0.152686    -0.323127     0.933784     1.865150     1.865150     2.498350    -0.003846     0.000442    -0.000954     0.086588     0.038435    -0.034947    66
   132 2     -9.91078    -29.41662    -68.33112     0.758926     0.383456     0.005793     0.526270     1.865150     1.865150     2.498350    -0.001334     0.000386     0.000368    -0.019225     0.052164    -0.120067    66
   133 1    -23.00268     17.63866    -50.64246    -0.351813     0.679483     0.591961    -0.253204     1.865150     1.865150     2.498350     0.000589     0.004708     0.009093     0.091041     0.013042    -0.190762    67