ITEM: TIMESTEP
0
ITEM: NUMBER OF ATOMS
64
ITEM: BOX BOUNDS pp pp pp
-1.2800000000000001e+01 1.2800000000000001e+01
-1.2800000000000001e+01 1.2800000000000001e+01
-1.2800000000000001e+01 1.2800000000000001e+01
ITEM: ATOMS id type xu yu zu quatw quati quatj quatk c_diameter[1] c_diameter[2] c_diameter[3] vx vy vz angmomx angmomy angmomz mol
1 1 -12.8 -12.8 -12.8 1 0 0 0 3.1589 3.1589 3.1589 -0.00034498 -0.00180809 -0.00142335 0 0 0 1
2 1 -6.4 -12.8 -12.8 1 0 0 0 3.1589 3.1589 3.1589 -0.0041226 0.00726907 -0.00259631 0 0 0 2
3 1 0 -12.8 -12.8 1 0 0 0 3.1589 3.1589 3.1589 0.00273089 0.00358858 -0.0022503 0 0 0 3
4 1 6.4 -12.8 -12.8 1 0 0 0 3.1589 3.1589 3.1589 0.00221437 0.00297857 0.000741922 0 0 0 4
5 1 -12.8 -6.4 -12.8 1 0 0 0 3.1589 3.1589 3.1589 -0.0012392 0.00324995 0.00224428 0 0 0 5
6 1 -6.4 -6.4 -12.8 1 0 0 0 3.1589 3.1589 3.1589 -0.00191024 0.00773899 0.00113087 0 0 0 6
7 1 0 -6.4 -12.8 1 0 0 0 3.1589 3.1589 3.1589 -0.0050658 -0.00225857 -0.00460439 0 0 0 7
8 1 6.4 -6.4 -12.8 1 0 0 0 3.1589 3.1589 3.1589 0.00552197 -0.0015771 -0.000734737 0 0 0 8
9 1 -12.8 0 -12.8 1 0 0 0 3.1589 3.1589 3.1589 -0.00193449 0.000193993 -0.001071 0 0 0 9
10 1 -6.4 0 -12.8 1 0 0 0 3.1589 3.1589 3.1589 0.00194462 -0.00341063 -0.00624123 0 0 0 10
11 1 0 0 -12.8 1 0 0 0 3.1589 3.1589 3.1589 0.000380121 -0.0108723 -0.000289134 0 0 0 11
12 1 6.4 0 -12.8 1 0 0 0 3.1589 3.1589 3.1589 -0.000823794 -0.00469923 -0.00316584 0 0 0 12
13 1 -12.8 6.4 -12.8 1 0 0 0 3.1589 3.1589 3.1589 -0.00132333 -0.00182116 0.00134213 0 0 0 13
14 1 -6.4 6.4 -12.8 1 0 0 0 3.1589 3.1589 3.1589 -0.00679133 0.00198153 -0.00714078 0 0 0 14
15 1 0 6.4 -12.8 1 0 0 0 3.1589 3.1589 3.1589 -0.00208169 0.0023075 -0.00301065 0 0 0 15
16 1 6.4 6.4 -12.8 1 0 0 0 3.1589 3.1589 3.1589 0.00307337 -0.00213537 0.00241841 0 0 0 16
17 1 -12.8 -12.8 -6.4 1 0 0 0 3.1589 3.1589 3.1589 0.00157598 0.00218666 -0.00172431 0 0 0 17
18 1 -6.4 -12.8 -6.4 1 0 0 0 3.1589 3.1589 3.1589 0.00686861 -0.00129304 0.00248752 0 0 0 18
19 1 0 -12.8 -6.4 1 0 0 0 3.1589 3.1589 3.1589 0.00137109 -0.000124466 -0.00229262 0 0 0 19
20 1 6.4 -12.8 -6.4 1 0 0 0 3.1589 3.1589 3.1589 0.00174574 -0.00440724 0.00109388 0 0 0 20
21 1 -12.8 -6.4 -6.4 1 0 0 0 3.1589 3.1589 3.1589 0.00118419 -0.000290268 -0.0009063 0 0 0 21
22 1 -6.4 -6.4 -6.4 1 0 0 0 3.1589 3.1589 3.1589 0.00205463 -0.00116075 0.00111788 0 0 0 22
23 1 0 -6.4 -6.4 1 0 0 0 3.1589 3.1589 3.1589 -0.00206436 -0.000710758 0.00204941 0 0 0 23
24 1 6.4 -6.4 -6.4 1 0 0 0 3.1589 3.1589 3.1589 -0.0054354 0.00179941 -0.00423401 0 0 0 24
25 1 -12.8 0 -6.4 1 0 0 0 3.1589 3.1589 3.1589 -0.00602961 -0.0026156 0.00220238 0 0 0 25
26 1 -6.4 0 -6.4 1 0 0 0 3.1589 3.1589 3.1589 -0.00243283 -0.00342201 0.00238305 0 0 0 26
27 1 0 0 -6.4 1 0 0 0 3.1589 3.1589 3.1589 0.00365321 -0.00397369 0.00349591 0 0 0 27
28 1 6.4 0 -6.4 1 0 0 0 3.1589 3.1589 3.1589 0.00329065 0.00027837 -0.00368678 0 0 0 28
29 1 -12.8 6.4 -6.4 1 0 0 0 3.1589 3.1589 3.1589 0.00178693 -0.00281471 -0.00215373 0 0 0 29
30 1 -6.4 6.4 -6.4 1 0 0 0 3.1589 3.1589 3.1589 -0.0053098 0.00619859 -0.0016688 0 0 0 30
31 1 0 6.4 -6.4 1 0 0 0 3.1589 3.1589 3.1589 0.0049321 -0.00482661 0.00488023 0 0 0 31
32 1 6.4 6.4 -6.4 1 0 0 0 3.1589 3.1589 3.1589 -0.00168508 -0.00177191 -0.00439837 0 0 0 32
33 1 -12.8 -12.8 0 1 0 0 0 3.1589 3.1589 3.1589 -0.00351041 -0.00157332 0.00160196 0 0 0 33
34 1 -6.4 -12.8 0 1 0 0 0 3.1589 3.1589 3.1589 0.00519461 -0.00529939 0.00785777 0 0 0 34
35 1 0 -12.8 0 1 0 0 0 3.1589 3.1589 3.1589 -0.00284424 0.00245606 -0.00613578 0 0 0 35
36 1 6.4 -12.8 0 1 0 0 0 3.1589 3.1589 3.1589 -0.005094 0.00162365 0.00133349 0 0 0 36
37 1 -12.8 -6.4 0 1 0 0 0 3.1589 3.1589 3.1589 0.000813485 0.00524863 0.00157053 0 0 0 37
38 1 -6.4 -6.4 0 1 0 0 0 3.1589 3.1589 3.1589 -0.00644775 -0.00357638 0.00897228 0 0 0 38
39 1 0 -6.4 0 1 0 0 0 3.1589 3.1589 3.1589 0.00566487 -0.00274397 0.00202772 0 0 0 39
40 1 6.4 -6.4 0 1 0 0 0 3.1589 3.1589 3.1589 -0.00285882 0.00330637 -8.05844e-05 0 0 0 40
41 1 -12.8 0 0 1 0 0 0 3.1589 3.1589 3.1589 0.0045422 0.00397079 0.0092409 0 0 0 41
42 1 -6.4 0 0 1 0 0 0 3.1589 3.1589 3.1589 0.00253583 0.00239232 0.00403518 0 0 0 42
43 1 0 0 0 1 0 0 0 3.1589 3.1589 3.1589 -0.00123632 0.00146745 0.0027601 0 0 0 43
44 1 6.4 0 0 1 0 0 0 3.1589 3.1589 3.1589 0.00397286 0.00118469 -0.000207283 0 0 0 44
45 1 -12.8 6.4 0 1 0 0 0 3.1589 3.1589 3.1589 0.00427095 0.001668 -0.00712689 0 0 0 45
46 1 -6.4 6.4 0 1 0 0 0 3.1589 3.1589 3.1589 0.00693027 -0.0040549 0.000957002 0 0 0 46
47 1 0 6.4 0 1 0 0 0 3.1589 3.1589 3.1589 0.00449802 -0.000862568 0.000528703 0 0 0 47
48 1 6.4 6.4 0 1 0 0 0 3.1589 3.1589 3.1589 -0.00487867 -0.00177556 -0.000799263 0 0 0 48
49 1 -12.8 -12.8 6.4 1 0 0 0 3.1589 3.1589 3.1589 -0.00552753 0.00214298 0.000397966 0 0 0 49
50 1 -6.4 -12.8 6.4 1 0 0 0 3.1589 3.1589 3.1589 -0.00153722 -0.00114343 -0.00563339 0 0 0 50
51 1 0 -12.8 6.4 1 0 0 0 3.1589 3.1589 3.1589 0.00416921 0.00583963 -0.00176736 0 0 0 51
52 1 6.4 -12.8 6.4 1 0 0 0 3.1589 3.1589 3.1589 -0.00395163 -0.00185274 0.00804564 0 0 0 52
53 1 -12.8 -6.4 6.4 1 0 0 0 3.1589 3.1589 3.1589 0.00639512 0.00324149 -0.00575774 0 0 0 53
54 1 -6.4 -6.4 6.4 1 0 0 0 3.1589 3.1589 3.1589 -0.000337336 0.00464887 -0.00475431 0 0 0 54
55 1 0 -6.4 6.4 1 0 0 0 3.1589 3.1589 3.1589 -0.00358816 -0.00351731 0.00154716 0 0 0 55
56 1 6.4 -6.4 6.4 1 0 0 0 3.1589 3.1589 3.1589 0.000220851 0.00149701 0.00158625 0 0 0 56
57 1 -12.8 0 6.4 1 0 0 0 3.1589 3.1589 3.1589 -0.00366991 0.00187833 -0.000196218 0 0 0 57
58 1 -6.4 0 6.4 1 0 0 0 3.1589 3.1589 3.1589 -0.00512252 0.00425334 0.00385286 0 0 0 58
59 1 0 0 6.4 1 0 0 0 3.1589 3.1589 3.1589 0.00701459 0.00158215 -0.00385778 0 0 0 59
60 1 6.4 0 6.4 1 0 0 0 3.1589 3.1589 3.1589 -0.00274352 0.000795971 -0.00143322 0 0 0 60
61 1 -12.8 6.4 6.4 1 0 0 0 3.1589 3.1589 3.1589 -0.000183654 -0.00688186 0.00265123 0 0 0 61
62 1 -6.4 6.4 6.4 1 0 0 0 3.1589 3.1589 3.1589 -0.0010528 0.00154531 -0.00150368 0 0 0 62
63 1 0 6.4 6.4 1 0 0 0 3.1589 3.1589 3.1589 0.00486691 -0.000704451 0.00689605 0 0 0 63
64 1 6.4 6.4 6.4 1 0 0 0 3.1589 3.1589 3.1589 -0.00223921 -0.000534849 -0.000604501 0 0 0 64
ITEM: TIMESTEP
5000
ITEM: NUMBER OF ATOMS
64
ITEM: BOX BOUNDS pp pp pp
-6.0957416124747281e+00 6.0957416124747281e+00
-6.0957416124747281e+00 6.0957416124747281e+00
-6.0957416124747281e+00 6.0957416124747281e+00
ITEM: ATOMS id type xu yu zu quatw quati quatj quatk c_diameter[1] c_diameter[2] c_diameter[3] vx vy vz angmomx angmomy angmomz mol
1 1 -12.0464 -14.7965 -1.81762 0.473209 0.613769 0.513179 0.368792 3.1589 3.1589 3.1589 -0.000643088 -0.00475849 0.0022152 0.00419064 0.00139546 0.0382955 1
2 1 -6.94661 6.37185 -10.0207 0.360554 -0.0642827 0.048525 -0.929255 3.1589 3.1589 3.1589 -0.00245164 -0.00174412 0.00426614 0.0341026 -0.0133764 -0.0110473 2
3 1 -3.97456 -9.30201 -9.45263 -0.390526 -0.321799 -0.821033 0.264272 3.1589 3.1589 3.1589 0.000373945 0.00788141 0.00277861 -0.00392964 -0.125864 0.0290302 3
4 1 11.4461 -7.23287 -1.41437 0.510386 0.00684468 0.79321 0.33208 3.1589 3.1589 3.1589 -0.0103778 0.00243593 0.00279806 -0.00148433 0.036864 0.0676788 4
5 1 -2.5929 4.42677 -5.60584 -0.334578 -0.795774 0.496163 -0.0928645 3.1589 3.1589 3.1589 -0.000893719 0.00298539 0.00164922 0.0469194 -0.0930916 0.0888667 5
6 1 -7.18148 3.47896 2.38884 -0.348296 -0.896301 0.211129 -0.17538 3.1589 3.1589 3.1589 -0.00702328 0.0026251 0.00364527 0.0152407 -0.0412769 0.089438 6
7 1 -0.436079 -5.05966 -11.6962 -0.788478 -0.327997 -0.21232 0.475016 3.1589 3.1589 3.1589 -0.00421572 0.0013347 -0.0090976 -0.03999 -0.0462938 0.0293203 7
8 1 10.6876 -9.09498 -7.88531 0.40561 0.362163 0.102961 0.832897 3.1589 3.1589 3.1589 0.00218415 -0.00156811 -0.000452312 0.0449267 -0.033447 -0.17079 8
9 1 -8.72399 0.723527 -1.60841 0.299033 0.135767 -0.943976 0.0324914 3.1589 3.1589 3.1589 0.000574814 -0.00638703 0.000294451 0.0795482 0.10416 -0.00440136 9
10 1 -5.59105 -11.5097 -4.08661 0.624454 0.663399 -0.389032 -0.13643 3.1589 3.1589 3.1589 -0.00341535 -0.0018794 -0.00407972 -0.042714 -0.0108531 0.0470934 10
11 1 -0.811236 -10.5011 -3.4563 0.673793 0.285478 0.437913 -0.522243 3.1589 3.1589 3.1589 0.006346 -0.000934509 0.00193016 -0.0428067 -0.0123489 0.0342673 11
12 1 0.220379 -0.247575 -5.90732 0.475875 -0.40231 -0.0666647 -0.77926 3.1589 3.1589 3.1589 -0.00286391 0.00123351 0.00258414 0.0138724 -0.0175213 0.0906057 12
13 1 -1.95033 0.424588 -8.45605 0.445145 0.619552 -0.29575 0.57492 3.1589 3.1589 3.1589 0.00305524 -0.00214841 0.00521169 0.10001 -0.0150956 0.0877982 13
14 1 -11.2922 0.172695 -9.47327 0.14217 -0.0417581 0.749499 0.64521 3.1589 3.1589 3.1589 0.00123246 0.00361256 0.00417397 -0.162036 0.0313701 -0.0901831 14
15 1 0.120455 5.55946 -5.52691 0.12296 0.157103 -0.287938 0.936638 3.1589 3.1589 3.1589 -0.00067436 -0.00224424 -0.000233589 0.0613199 0.0506964 -0.0544822 15
16 1 3.54731 5.28626 -3.61628 0.973206 0.133789 0.119878 0.143526 3.1589 3.1589 3.1589 0.00163421 0.00576589 0.00289837 0.0389547 0.0410066 -0.0234464 16
17 1 -3.03372 -15.9089 -4.07612 -0.474363 0.0206192 -0.723803 0.500663 3.1589 3.1589 3.1589 0.00619673 -0.00305349 -0.00605179 0.0274073 -0.0272683 -0.0959639 17
18 1 -4.23129 -12.5815 -1.98801 -0.114772 0.469365 0.72817 0.486099 3.1589 3.1589 3.1589 0.00149961 0.00458463 0.0100756 0.0135858 0.0573614 -0.0436475 18
19 1 5.3363 -5.25043 -7.44375 -0.716109 0.352489 -0.582019 0.155542 3.1589 3.1589 3.1589 -0.000177717 0.00692187 -0.00185398 -0.0509869 -0.0253777 -0.0103429 19
20 1 6.4379 -8.9653 0.0628036 -0.900667 -0.200257 -0.380181 -0.064479 3.1589 3.1589 3.1589 -0.00151814 0.0036913 -7.58025e-06 -0.0294394 -0.00757068 -0.0184334 20
21 1 -1.8216 -13.0807 -3.05573 0.153605 0.574348 0.78643 -0.167503 3.1589 3.1589 3.1589 -0.00732579 0.00264279 -0.000280216 -0.0242824 0.0509094 -0.0251533 21
22 1 4.74992 -8.79698 -6.12151 -0.725255 -0.0199343 -0.402363 0.558311 3.1589 3.1589 3.1589 0.00329133 -0.00591297 0.000656207 0.00715371 0.090641 -0.0356253 22
23 1 3.64011 -0.725138 1.29518 -0.455787 -0.374657 0.410768 0.695097 3.1589 3.1589 3.1589 0.00098547 0.00553169 0.00166258 -0.00412303 -0.152276 0.0365055 23
24 1 -6.31772 -5.5513 -15.345 0.257031 0.59849 0.730777 0.204229 3.1589 3.1589 3.1589 -0.00231891 0.00593197 -0.000477643 0.0157612 -0.0847709 0.0336016 24
25 1 -8.74558 -1.39531 -3.65239 0.370259 0.32664 0.798361 0.344724 3.1589 3.1589 3.1589 -0.00040338 -0.0004817 3.64041e-05 0.0327215 0.0215902 0.0651533 25
26 1 -8.01791 -6.35609 -1.00131 0.611989 -0.536449 0.553323 -0.177552 3.1589 3.1589 3.1589 6.27748e-05 -0.0044515 -0.00144558 -0.115822 0.0316537 -0.107227 26
27 1 1.72415 2.64184 -0.597851 -0.0873278 -0.545372 0.816753 0.166905 3.1589 3.1589 3.1589 0.000717538 -0.000121207 -0.0012033 -0.0583196 0.0313518 0.0771833 27
28 1 5.90826 0.707838 -11.9424 0.235562 -0.400091 0.870966 -0.160796 3.1589 3.1589 3.1589 -0.00182648 0.00262768 -0.00597757 0.0718243 -0.0956707 -0.0156075 28
29 1 -2.29198 -1.37137 -5.87257 -0.771162 -0.367938 -0.459312 0.242823 3.1589 3.1589 3.1589 -0.00250749 -0.00169661 0.00237685 0.0492194 -0.0417223 -0.0112683 29
30 1 -6.27582 9.17116 0.668189 0.108655 0.5673 0.665844 0.472246 3.1589 3.1589 3.1589 0.0010403 0.00215509 0.00400915 -0.020904 -0.0405535 0.0216988 30
31 1 5.80602 -2.56603 -5.89732 -0.394962 0.240272 -0.71783 -0.520571 3.1589 3.1589 3.1589 0.00249584 -0.00418659 0.00346455 0.0673755 -0.0480096 0.172971 31
32 1 1.12407 9.5345 -4.81146 -0.59947 -0.740058 -0.295286 -0.0758679 3.1589 3.1589 3.1589 0.00289633 0.0066489 -0.00100157 0.0263577 0.000645968 -0.0790098 32
33 1 -7.65827 -14.1289 -1.3417 0.250624 0.263412 0.705784 0.608005 3.1589 3.1589 3.1589 -0.0028802 -0.0103984 0.0036372 0.0230094 0.0252105 0.119956 33
34 1 -1.94401 -13.0618 0.267498 -0.255994 -0.229478 -0.107586 -0.932862 3.1589 3.1589 3.1589 -0.00344823 -0.00191585 -0.00128507 -3.75051e-05 -0.166882 -0.0222811 34
35 1 2.65273 -4.03657 -1.07208 -0.234939 0.174927 -0.832331 0.470563 3.1589 3.1589 3.1589 0.00089516 -0.00386101 0.00489186 -0.0596386 0.0557658 0.0867615 35
36 1 9.50404 -5.53926 -2.12413 -0.741546 0.0124242 0.656935 -0.135615 3.1589 3.1589 3.1589 0.000562001 -0.00430974 0.00592288 0.0453683 -0.0932714 0.119287 36
37 1 -3.29685 2.44691 -3.8234 -0.104808 -0.168505 -0.0614805 0.978183 3.1589 3.1589 3.1589 -0.00525183 0.0014423 -0.00290684 -0.0230726 -0.0875635 0.0836083 37
38 1 -6.73404 1.21604 3.97074 0.385017 0.917387 -0.0993324 0.0171878 3.1589 3.1589 3.1589 0.000173883 0.00611647 -0.00466011 -0.104972 0.0820997 0.0326944 38
39 1 3.49012 -3.49764 1.72376 -0.0081627 -0.148842 -0.719667 0.678129 3.1589 3.1589 3.1589 -0.00481639 -0.00112545 -0.00502392 0.00963529 -0.0177955 -0.00545893 39
40 1 -5.40584 -6.7403 -5.68671 0.557339 -0.132387 0.788127 0.225172 3.1589 3.1589 3.1589 0.00247154 -0.00576831 0.0029315 -0.0419171 0.0421842 -0.0583773 40
41 1 -0.719003 1.70521 0.509569 0.643786 0.375543 -0.00816495 0.666664 3.1589 3.1589 3.1589 0.0033604 -0.0046951 -0.00479196 0.0168659 -0.0157907 -0.0803543 41
42 1 -5.00764 -0.056466 5.59572 -0.45007 -0.596873 -0.13783 -0.649755 3.1589 3.1589 3.1589 0.00136064 0.000218326 0.00546327 -0.0811651 0.0831979 0.0207302 42
43 1 -3.40728 4.91759 0.681696 0.787573 -0.42673 -0.3028 -0.325488 3.1589 3.1589 3.1589 0.00101479 0.00435949 -0.00427946 -0.00872366 -0.035757 0.0441193 43
44 1 3.38055 1.1636 -5.23004 -0.859373 -0.19762 -0.452725 -0.132156 3.1589 3.1589 3.1589 -0.00814521 -0.00451025 0.000660253 0.0247524 -0.100814 -0.0382376 44
45 1 1.11551 -0.734132 -0.208827 -0.0683542 -0.195398 -0.917611 -0.339318 3.1589 3.1589 3.1589 0.00567554 0.00211853 -0.000143214 -0.0493704 -0.141763 0.0365745 45
46 1 1.99243 2.67808 -3.19507 -0.647748 -0.0481953 0.720881 0.241724 3.1589 3.1589 3.1589 -0.00724875 0.00265485 0.00228855 0.0731671 -0.0245701 -0.00322045 46
47 1 2.40418 4.02759 -7.35704 0.271763 -0.865129 -0.305051 -0.290929 3.1589 3.1589 3.1589 -0.000637368 -0.00569446 0.000414739 -0.0219308 -0.0598973 0.154492 47
48 1 -4.17282 0.115736 1.94372 -0.301603 0.34027 -0.88982 0.0383739 3.1589 3.1589 3.1589 -0.000443148 0.00650456 0.00254909 0.172142 0.0185103 0.103079 48
49 1 -18.1206 -1.67216 3.1404 0.187543 0.698357 0.673143 -0.154931 3.1589 3.1589 3.1589 0.0030428 0.00585272 0.00202914 -0.120539 0.0256379 -0.101847 49
50 1 -5.4127 -15.0308 -3.00608 0.286786 -0.320671 -0.894039 -0.124974 3.1589 3.1589 3.1589 0.00245478 0.00079863 2.98695e-05 0.0297564 0.0202629 -0.045937 50
51 1 1.87471 -6.97175 0.508099 -0.62973 -0.582342 -0.387534 0.337837 3.1589 3.1589 3.1589 -0.00190221 0.00228474 0.00632894 0.00754993 0.0586091 0.0102319 51
52 1 -4.38156 -7.51256 9.83937 0.63904 0.0386464 0.288298 -0.712052 3.1589 3.1589 3.1589 0.00231641 0.000275834 0.0104089 -0.0361118 -0.0516376 0.0163384 52
53 1 -8.72115 -2.5299 -7.84474 -0.0776519 -0.407344 0.450311 -0.790735 3.1589 3.1589 3.1589 0.00368627 -0.0014609 0.000427704 0.181331 0.00572026 -0.0824382 53
54 1 -11.9403 -2.80564 1.97888 -0.520169 -0.510564 -0.676405 -0.105949 3.1589 3.1589 3.1589 -0.00182439 -0.00111781 0.00290421 -0.0223026 -0.0276295 0.0853147 54
55 1 1.15963 -5.91154 -3.05221 0.212521 0.618944 -0.494085 0.572384 3.1589 3.1589 3.1589 0.00404611 0.00817933 0.00200469 0.154891 -0.0762488 -0.00770873 55
56 1 1.0196 -15.8922 4.5214 -0.417096 -0.546192 -0.269953 -0.674411 3.1589 3.1589 3.1589 -0.00573482 -0.00587795 -0.00236116 0.00575149 -0.0936288 0.132505 56
57 1 -10.1032 6.43356 2.88033 -0.686627 0.177388 0.424714 0.562756 3.1589 3.1589 3.1589 -0.000515533 0.00547328 0.00264536 0.073268 0.0890839 0.00599412 57
58 1 -4.11075 -3.00106 5.21754 -0.925795 -0.324747 -0.0889535 -0.171842 3.1589 3.1589 3.1589 -0.00295648 0.00113943 -0.00614603 -0.0235644 0.204308 0.0578395 58
59 1 2.29466 2.54289 2.37247 0.125072 -0.675056 0.550768 -0.474669 3.1589 3.1589 3.1589 0.00117131 -0.00178845 0.000647695 -0.0105165 -0.000139905 0.021407 59
60 1 -4.34785 7.16716 1.52354 -0.638798 -0.141584 0.0384823 0.755255 3.1589 3.1589 3.1589 -0.000494239 0.00356896 -0.00591161 0.0192151 -0.0457845 0.10289 60
61 1 -14.8586 -2.76385 2.55189 0.203416 -0.221674 -0.689516 -0.658825 3.1589 3.1589 3.1589 -0.00490525 0.000831336 0.00735014 0.0350536 -0.0195759 0.0393558 61
62 1 -0.905773 4.30686 1.87825 0.686888 0.560061 0.44325 0.134332 3.1589 3.1589 3.1589 -0.00333209 0.00765649 -0.00157529 0.101689 -0.00983005 -0.00398218 62
63 1 5.28948 3.04674 -2.83552 -0.856769 0.11704 0.498855 0.0582388 3.1589 3.1589 3.1589 -0.00324236 0.00494529 -0.0043449 -0.048834 0.0185077 -0.00525101 63
64 1 2.66524 0.0686487 4.63088 -0.118904 -0.669759 -0.483507 -0.550914 3.1589 3.1589 3.1589 0.00347744 -0.000932118 -0.00286637 -0.0218604 -0.124906 0.00606735 64
ITEM: TIMESTEP
10000
ITEM: NUMBER OF ATOMS
64
ITEM: BOX BOUNDS pp pp pp
-5.9798105747186909e+00 5.9798105747186909e+00
-5.9798105747186909e+00 5.9798105747186909e+00
-5.9798105747186909e+00 5.9798105747186909e+00
ITEM: ATOMS id type xu yu zu quatw quati quatj quatk c_diameter[1] c_diameter[2] c_diameter[3] vx vy vz angmomx angmomy angmomz mol
1 1 -13.2644 -15.6191 1.21964 -0.77765 -0.284909 -0.232611 -0.509881 3.1589 3.1589 3.1589 -0.00206818 -0.00187832 -0.0033485 0.0520576 -0.0275577 0.011348 1
2 1 -7.13619 14.432 -5.15686 -0.571441 -0.70955 -0.227562 0.343815 3.1589 3.1589 3.1589 0.000480491 -0.0022674 0.00150001 -0.0207908 -0.0877844 -0.047788 2
3 1 -2.89587 0.156859 -4.55243 0.757991 -0.287256 0.585222 0.021192 3.1589 3.1589 3.1589 -0.000575286 -0.00045715 -0.000475782 -0.0448722 -0.0328686 0.054094 3
4 1 10.1245 -7.23654 4.51798 0.632202 0.709249 0.308611 -0.0452395 3.1589 3.1589 3.1589 -0.00318808 -0.00528798 0.00650711 -0.01444 0.0545149 0.0300928 4
5 1 -4.35156 7.25492 -5.28722 -0.159016 -0.780524 -0.532325 -0.286577 3.1589 3.1589 3.1589 -0.00347397 -0.000134985 0.00657234 0.0488372 0.0319253 -0.159701 5
6 1 -18.026 7.84866 2.97032 -0.107068 0.48547 0.782092 0.37575 3.1589 3.1589 3.1589 -0.00260121 -0.00398463 -0.000432876 0.0749017 0.0766392 -0.1006 6
7 1 2.17839 1.10718 -3.27997 0.553741 -0.773349 0.19585 0.238631 3.1589 3.1589 3.1589 -0.00270798 -0.00164987 -0.00259432 -0.105645 0.166794 0.0320529 7
8 1 14.0854 -7.87719 -5.95467 0.418715 0.137846 0.407859 -0.799579 3.1589 3.1589 3.1589 -0.0032882 -0.00171441 0.00109231 -0.0260191 -0.0835033 0.0362814 8
9 1 -4.15639 1.31448 1.10746 -0.353314 0.102548 -0.900126 0.233293 3.1589 3.1589 3.1589 -0.00328988 0.00517882 0.00095489 -0.0258934 0.0453921 -0.0830007 9
10 1 -4.66449 -4.70597 -0.594312 -0.0212524 0.35667 0.287539 -0.888626 3.1589 3.1589 3.1589 -0.00587361 -0.000314896 0.00226901 0.0426265 -0.0418281 0.041923 10
11 1 9.08954 -6.92291 -0.503057 0.288737 -0.479082 -0.313884 -0.767195 3.1589 3.1589 3.1589 0.000442428 0.00121429 0.00205401 -0.0235006 0.0853531 -0.0524709 11
12 1 3.98828 5.00258 -0.447647 0.310635 -0.252164 0.630072 0.665529 3.1589 3.1589 3.1589 0.00241292 -0.00220427 0.00218882 0.00586348 -0.057459 0.0312026 12
13 1 -6.16083 6.66872 -2.97487 -0.16035 0.257852 -0.590838 0.74747 3.1589 3.1589 3.1589 -0.00339297 0.00557099 -0.00291024 -0.027941 -0.0470182 0.0400127 13
14 1 -15.4161 4.28118 -5.38551 -0.0527757 0.565768 -0.149275 -0.809221 3.1589 3.1589 3.1589 -0.00157833 0.00594864 0.00035526 -0.00662368 -0.00633661 0.0226298 14
15 1 -0.842568 11.3917 1.48934 -0.0152583 -0.134106 -0.540754 0.830282 3.1589 3.1589 3.1589 -0.00162389 -0.00189806 -0.000716544 0.0434942 -0.0426214 -0.0365149 15
16 1 2.93503 7.62688 -0.697341 0.254492 0.890976 -0.217871 -0.306477 3.1589 3.1589 3.1589 -0.0016536 0.0014111 0.00104288 -0.0180201 -0.0327283 0.0867505 16
17 1 -0.526784 -13.8685 -4.77867 -0.237906 -0.398547 0.698348 -0.544859 3.1589 3.1589 3.1589 0.00145192 0.00529569 0.00276168 0.00167991 0.0989634 -0.117741 17
18 1 -1.03935 -7.987 -2.79562 -0.920384 0.203497 -0.0998833 0.318599 3.1589 3.1589 3.1589 0.000795387 -0.00168814 -0.00258482 -0.000922737 -0.0347767 -0.0568093 18
19 1 4.54362 5.1965 -5.18218 -0.136818 0.639717 0.539518 -0.53006 3.1589 3.1589 3.1589 -0.00833468 -0.00203156 -0.00276237 0.111704 0.0695255 0.0403251 19
20 1 -2.19076 -3.36972 -1.4538 -0.0741937 0.170703 -0.653183 -0.733967 3.1589 3.1589 3.1589 0.00227346 -0.00325992 -0.000747267 0.0559139 0.0578591 0.0863418 20
21 1 -2.3574 -5.52113 -3.43033 0.521697 -0.421902 -0.678333 -0.299491 3.1589 3.1589 3.1589 -0.00517959 -0.0054793 0.00969808 -0.0569635 -0.15889 -0.00860008 21
22 1 2.87523 0.623868 -5.94275 -0.646228 -0.0266764 0.0735168 0.759127 3.1589 3.1589 3.1589 -0.00302118 0.00384286 -0.00142133 -0.0432885 -0.0690235 -0.0902475 22
23 1 3.63603 0.423457 3.03431 0.193841 -0.427808 0.200307 0.859816 3.1589 3.1589 3.1589 -0.00782448 -0.00100874 -0.00697742 0.0293695 0.0974537 -0.0365544 23
24 1 -12.0072 -2.53112 -7.56802 0.166462 -0.178586 -0.119789 0.962314 3.1589 3.1589 3.1589 -0.000850551 0.0002334 0.00728211 -0.026611 -0.0550942 -0.065802 24
25 1 -3.67632 -1.36784 1.48336 0.26588 -0.406828 0.86948 -0.088338 3.1589 3.1589 3.1589 0.000159949 0.00217293 0.000769905 -0.0154016 0.0418981 -0.0250316 25
26 1 -11.3912 -2.54314 -2.07368 0.922567 -0.183447 -0.338857 -0.0197998 3.1589 3.1589 3.1589 -0.00440382 -0.00239847 0.00192086 -0.0840605 0.0337625 -0.0893294 26
27 1 -5.44781 9.27166 5.22865 0.277233 0.427613 0.555275 0.657236 3.1589 3.1589 3.1589 -0.00281077 -0.00198742 0.00458211 -0.00367942 0.0637223 -0.145759 27
28 1 4.98357 10.6761 -5.00286 -0.358242 -0.203396 0.564833 0.715022 3.1589 3.1589 3.1589 0.00343588 0.00103307 0.00750613 0.166898 -0.00310296 0.0204785 28
29 1 0.259327 6.67636 -2.3504 -0.157048 0.454181 0.876916 0.00863847 3.1589 3.1589 3.1589 -0.00183358 0.00275478 0.00231614 -0.128691 0.0645881 0.101 29
30 1 -2.64568 12.6361 4.7171 0.327306 -0.000384669 0.246042 -0.912323 3.1589 3.1589 3.1589 -0.00271836 -0.00164155 -0.00446191 -0.00558996 -0.0875314 -0.0195211 30
31 1 7.14251 2.33796 5.09694 -0.122047 0.344123 0.503701 -0.782924 3.1589 3.1589 3.1589 0.00023332 -0.00371575 -0.00069366 -0.0831845 0.0167067 -0.0554412 31
32 1 1.15209 17.0344 -0.307477 -0.595082 0.196025 -0.758628 -0.178704 3.1589 3.1589 3.1589 0.00452262 0.000390585 0.00063712 0.0389763 -0.0857137 -0.0670445 32
33 1 -9.91289 -9.43911 3.53301 0.250725 -0.898603 0.198408 -0.300474 3.1589 3.1589 3.1589 0.00213956 0.00272155 -0.000688672 0.0127213 -0.0532464 0.00746196 33
34 1 -8.17795 -7.72105 2.3711 0.0828438 -0.197807 0.0305892 -0.976255 3.1589 3.1589 3.1589 -0.00258992 0.00316649 -0.00537459 -0.0152492 0.0120168 -0.035929 34
35 1 4.2397 -2.60188 1.39516 -0.161927 0.830026 0.177122 0.503452 3.1589 3.1589 3.1589 -0.00752079 0.000165323 -0.000541878 0.0718633 0.0236331 0.0201193 35
36 1 9.69162 -0.518307 -1.17671 -0.480013 -0.0654453 0.022601 -0.874525 3.1589 3.1589 3.1589 -0.000173701 -0.00228823 0.000452268 0.0544736 -0.0507778 0.0656417 36
37 1 -5.7202 10.0632 -0.560796 0.447365 0.0828406 0.117046 0.882781 3.1589 3.1589 3.1589 0.00227661 -0.000248442 -0.00404411 0.0416779 -0.00417353 -0.0514532 37
38 1 -7.06978 0.22761 12.5773 -0.574028 0.181308 -0.541717 -0.586654 3.1589 3.1589 3.1589 -0.00268829 0.00175954 0.00577409 -0.0788183 -0.0247553 -0.103338 38
39 1 -0.151836 2.1299 1.90509 0.373531 -0.744153 -0.216528 0.509732 3.1589 3.1589 3.1589 -0.00299057 0.00143662 -0.0009116 0.00247869 -0.0140389 0.0268302 39
40 1 -6.92339 2.08201 -2.25641 0.752494 0.622536 0.0648689 0.204926 3.1589 3.1589 3.1589 -0.00282597 0.00103193 0.00408824 0.0415433 0.0398806 0.0186716 40
41 1 -2.97741 6.65759 2.86214 -0.0165801 0.716849 0.216943 0.662411 3.1589 3.1589 3.1589 0.00306494 0.000776489 0.00547422 0.0112659 -0.0586194 -0.0514687 41
42 1 -5.30185 3.70134 11.1347 0.997099 0.0276581 0.0265901 0.0657341 3.1589 3.1589 3.1589 -0.00837809 -0.00156035 -5.29087e-05 -0.0948623 0.000887891 0.0515245 42
43 1 -6.17254 14.1865 2.64665 -0.0230476 0.268749 -0.193463 0.9433 3.1589 3.1589 3.1589 0.00485827 0.000485514 0.00480314 0.0419859 -0.0601426 -0.0676921 43
44 1 2.6363 6.86782 -4.08722 -0.338087 0.49029 0.701634 -0.391181 3.1589 3.1589 3.1589 -0.00232234 0.00167684 0.00348773 -0.00171181 0.00115416 0.039498 44
45 1 3.14647 -1.97791 4.53303 0.00547483 -0.619005 0.229069 0.75122 3.1589 3.1589 3.1589 -0.00122632 -0.00711861 -0.000184426 -0.0228895 0.0318916 0.13822 45
46 1 -0.215065 7.29276 6.75907 0.8423 0.280803 -0.269433 -0.372943 3.1589 3.1589 3.1589 -0.00134137 0.000700623 -0.00071363 -0.0479569 0.0604348 -0.0529063 46
47 1 3.07121 2.11601 -0.265254 0.0933776 -0.363654 0.926837 0.0030262 3.1589 3.1589 3.1589 -0.00674585 -0.00194704 -0.00240415 -0.0229622 0.0801986 0.060454 47
48 1 -7.75073 8.8554 9.18292 0.216528 0.909599 -0.0774273 -0.346051 3.1589 3.1589 3.1589 0.00458297 -0.00245702 -0.00442447 -0.0516098 0.0869272 0.142055 48
49 1 -19.2929 6.03836 4.33153 -0.640737 0.619928 0.400102 -0.212281 3.1589 3.1589 3.1589 0.0031333 0.00237402 0.00366595 -0.119831 0.101215 0.0817899 49
50 1 -10.0315 -12.9385 0.954444 -0.605985 0.652036 0.033987 0.454396 3.1589 3.1589 3.1589 -0.000409178 0.000323128 0.0034733 0.0560061 0.115608 -0.027572 50
51 1 -2.30253 3.6896 1.9629 0.582062 0.6365 0.0880048 -0.498324 3.1589 3.1589 3.1589 0.00352327 0.00272864 -0.00319224 0.0710779 -0.103615 -0.0708928 51
52 1 -2.97419 -1.94471 16.0247 -0.587861 0.585006 -0.252375 -0.498492 3.1589 3.1589 3.1589 0.0042981 5.49287e-05 0.000902437 0.0234098 0.00108663 0.0753185 52
53 1 -9.79714 -2.58096 -4.76156 -0.33093 0.164206 -0.767978 -0.523194 3.1589 3.1589 3.1589 -0.00043202 0.00556601 0.0059467 0.028249 -0.016752 -0.0509307 53
54 1 -11.4991 2.275 11.2351 0.508228 -0.321475 0.71654 -0.353452 3.1589 3.1589 3.1589 -0.0050287 -0.00219068 0.00800158 0.0275124 -0.0419094 -0.0119687 54
55 1 0.604734 -6.02538 -7.0926 -0.629268 -0.591073 0.30314 0.403436 3.1589 3.1589 3.1589 -0.00508034 -0.00530164 -0.00508785 -0.0063737 -0.00476106 0.00968204 55
56 1 6.54614 -12.134 9.18029 -0.516472 -0.209367 -0.54619 -0.625379 3.1589 3.1589 3.1589 -0.00213716 -0.0003662 2.82935e-05 0.0888395 0.0479432 0.0614758 56
57 1 -11.91 12.1329 4.65816 0.0211675 -0.900395 -0.408513 -0.148183 3.1589 3.1589 3.1589 0.00464667 8.48681e-09 0.00877446 -0.011192 -0.0517473 0.0230902 57
58 1 -3.13284 -2.45357 7.9271 0.517955 0.272338 0.761299 0.279247 3.1589 3.1589 3.1589 -0.00341861 0.00088519 -0.00402693 0.0353172 0.00757698 0.0638825 58
59 1 -0.560184 0.768836 8.89956 -0.612574 0.586558 -0.374725 -0.374545 3.1589 3.1589 3.1589 -0.00394976 -0.00268833 -0.000546767 -0.0376403 0.0715731 0.0722926 59
60 1 1.40913 16.0361 8.51944 -0.00252295 0.694132 0.412166 -0.590163 3.1589 3.1589 3.1589 0.00148152 -0.00417093 0.00220315 0.00967558 0.06407 -0.0267999 60
61 1 -9.4412 7.40575 3.86385 0.218289 0.961468 0.101363 -0.132869 3.1589 3.1589 3.1589 0.00615231 0.000293775 -0.000459237 -0.0989393 -0.0582414 -0.0474719 61
62 1 2.62594 11.0831 10.4186 -0.788005 0.38076 -0.17056 0.452746 3.1589 3.1589 3.1589 -0.00196425 -0.00163204 -0.00268368 -0.0416225 -0.040844 -0.0879245 62
63 1 1.15901 7.157 1.43673 0.766923 0.525111 -0.357926 0.0893182 3.1589 3.1589 3.1589 -0.000611286 -0.00228435 -0.00258249 -0.0570088 0.0799752 0.0785375 63
64 1 8.47696 2.95797 9.10656 -0.810028 -0.529942 -0.243968 0.0591286 3.1589 3.1589 3.1589 -0.000704096 0.000544093 0.00399052 -0.0530086 0.0179602 -0.0433434 64
ITEM: TIMESTEP
15000
ITEM: NUMBER OF ATOMS
64
ITEM: BOX BOUNDS pp pp pp
-6.0784426370188838e+00 6.0784426370188838e+00
-6.0784426370188838e+00 6.0784426370188838e+00
-6.0784426370188838e+00 6.0784426370188838e+00
ITEM: ATOMS id type xu yu zu quatw quati quatj quatk c_diameter[1] c_diameter[2] c_diameter[3] vx vy vz angmomx angmomy angmomz mol
1 1 -4.24107 -8.92961 6.99271 0.322286 -0.49817 -0.804605 0.0238433 3.1589 3.1589 3.1589 -0.00348347 -0.00350004 0.00445515 -0.0445748 -0.045629 0.0389759 1
2 1 -6.19087 13.2241 -11.4188 -0.434455 -0.59649 0.635729 -0.226489 3.1589 3.1589 3.1589 0.00480113 -0.00658845 0.00295262 -0.0838629 -0.034407 -0.0893732 2
3 1 4.33175 9.1993 -3.74576 -0.23456 -0.102725 -0.950353 -0.176799 3.1589 3.1589 3.1589 0.0032107 0.000180592 -0.00387741 0.016762 0.0270526 -0.0335583 3
4 1 15.303 -7.86001 4.25145 0.46658 0.22479 -0.851883 0.0778923 3.1589 3.1589 3.1589 0.000766231 0.00504482 0.00237633 -0.00655266 0.0172356 0.029275 4
5 1 -0.047198 11.3982 -5.87532 -0.144985 -0.197779 -0.960902 -0.128572 3.1589 3.1589 3.1589 0.00377176 0.00228526 0.0047014 -0.0921536 0.0615727 -0.0661076 5
6 1 -12.1205 10.5761 3.61043 -0.379772 0.260356 -0.727861 -0.508139 3.1589 3.1589 3.1589 -0.00180137 0.000117892 0.000936967 -0.000489741 0.0359451 0.0187474 6
7 1 8.6006 4.98564 -7.95773 -0.0409259 0.570166 -0.818919 -0.0510738 3.1589 3.1589 3.1589 -0.00323106 -0.00322972 0.00244128 -0.10437 0.0146505 0.154898 7
8 1 20.6933 -2.83282 -5.07935 0.694534 0.232955 0.677717 0.0636737 3.1589 3.1589 3.1589 0.00133044 -0.000463379 -0.000459293 0.0683051 -0.0950202 0.115706 8
9 1 0.664433 2.4162 2.43895 0.466281 -0.508769 0.705435 0.161547 3.1589 3.1589 3.1589 0.00214832 0.00160271 0.00115843 -0.0379551 0.0125848 -0.0410508 9
10 1 -3.03884 -8.08212 1.38866 -0.819319 -0.353339 -0.449894 0.0382535 3.1589 3.1589 3.1589 0.000106383 -0.00501181 -0.00637543 -0.0686955 0.0546742 0.0439516 10
11 1 16.4839 0.169201 2.83529 -0.338165 -0.0527596 -0.303206 -0.889341 3.1589 3.1589 3.1589 -0.00382865 0.00167257 -0.00573962 0.105737 -0.0522846 0.0120835 11
12 1 10.5701 6.20718 0.478499 0.339009 -0.239192 -0.665527 0.620431 3.1589 3.1589 3.1589 0.00535492 0.00210771 -0.00277767 -0.00955035 0.0129355 0.0848442 12
13 1 6.25568 3.46269 -9.1406 0.121884 0.225127 0.367473 0.894106 3.1589 3.1589 3.1589 -0.0011988 -0.00508783 -0.00251758 -0.0257406 -0.0383973 0.0419607 13
14 1 0.420568 7.49412 -7.84752 0.905412 0.334722 0.25382 -0.0613679 3.1589 3.1589 3.1589 -0.0048005 0.00121846 0.000945971 0.072791 0.0319286 -0.129167 14
15 1 0.732247 19.531 -1.10342 -0.736572 0.310214 -0.512364 -0.314185 3.1589 3.1589 3.1589 0.000207891 0.00397209 0.00520212 -0.0614016 -0.0565553 0.0325324 15
16 1 6.50071 11.2702 -1.51788 -0.249772 0.313912 0.903887 0.148533 3.1589 3.1589 3.1589 -0.00185255 -0.00609538 0.000544842 -0.0946076 -0.0868468 0.0892997 16