ITEM: TIMESTEP
55000
ITEM: NUMBER OF ATOMS
64
ITEM: BOX BOUNDS pp pp pp
-6.189 6.189
-6.189 6.189
-6.189 6.189
ITEM: ATOMS id type xu yu zu quatw quati quatj quatk c_diameter[1] c_diameter[2] c_diameter[3] vx vy vz angmomx angmomy angmomz mol
1 1 -4.0845 3.97043 5.0523 -0.391213 0.0383096 0.00325745 0.919497 3.1589 3.1589 3.1589 -7.63231e-05 -0.00187121 3.68103e-05 0.0292853 -0.0860195 -0.148687 1 
2 1 -4.0859 -2.8978 3.4132 0.129456 -0.656669 0.666172 -0.329 3.1589 3.1589 3.1589 0.00154247 -0.00142535 -0.00324056 -0.181089 0.0757266 0.00224262 2 
3 1 3.8869 5.6347 0.280999 -0.579432 0.227341 0.350844 0.699631 3.1589 3.1589 3.1589 0.00101144 0.00315629 -0.00797124 0.0532809 -0.0699654 -0.0995051 3 
4 1 -4.6661 4.61954 1.2002 -0.318449 -0.36764 0.732848 -0.475778 3.1589 3.1589 3.1589 -0.00359862 -0.00213564 0.000172596 -0.0245045 -0.0866197 0.101962 4 
5 1 -1.32069 -2.6617 3.607 0.851229 0.460248 -0.141515 0.208697 3.1589 3.1589 3.1589 0.00421614 -0.00442536 0.00443739 -0.0728808 -0.0609882 -0.0611771 5 
6 1 5.6819 -2.76411 -0.869001 0.483682 0.787874 -0.10958 -0.365101 3.1589 3.1589 3.1589 -0.00359591 -0.00431151 -0.00231901 -0.0264436 -0.0787008 -0.00868119 6 
7 1 0.831453 -1.2073 0.297499 0.706654 0.273799 -0.573929 0.310291 3.1589 3.1589 3.1589 -0.00708836 -0.00603687 -0.00541192 0.0321421 -0.0487404 0.0678025 7 
8 1 -2.3217 4.16342 -2.5922 0.475547 -0.0744111 -0.670848 0.564163 3.1589 3.1589 3.1589 -0.000280087 0.00323066 0.000725237 -0.113208 -0.0198697 -0.16399 8 
9 1 1.987 -3.75207 0.885899 -0.235479 0.703874 -0.655818 0.137895 3.1589 3.1589 3.1589 0.00442224 -0.00377339 0.00150525 0.0528341 0.00342576 -0.00257328 9 
10 1 -2.80331 0.449813 -5.4084 -0.643423 0.475599 -0.358129 -0.481203 3.1589 3.1589 3.1589 -0.00257424 -0.00335814 0.00130147 0.0576451 -0.0154424 -0.104098 10 
11 1 -1.9944 4.50886 2.5229 0.66717 -0.716148 0.0868939 0.185649 3.1589 3.1589 3.1589 0.00340494 -0.00558771 0.00345911 -0.00949819 -0.0513213 0.00747736 11 
12 1 1.49431 2.9273 1.0567 0.661111 0.0294768 -0.694717 0.281835 3.1589 3.1589 3.1589 0.00213164 0.00357711 0.00302275 0.0182167 -0.0523103 0.0625223 12 
13 1 1.14852 1.7772 5.5176 -0.288589 0.144725 0.596209 -0.735055 3.1589 3.1589 3.1589 0.0086313 -0.00149781 -0.00240918 -0.130659 0.00942942 -0.00539146 13 
14 1 -6.09527 1.847 0.502498 -0.190058 0.589206 0.732531 0.283042 3.1589 3.1589 3.1589 0.00254938 -0.00228793 -0.00175838 -0.03505 -0.116346 -0.0820174 14 
15 1 2.86011 -1.711 5.549 -0.562422 -0.403577 0.0234802 -0.721288 3.1589 3.1589 3.1589 0.000531925 0.00414905 -0.00436203 0.154015 0.0286127 -0.0453606 15 
16 1 0.67864 -4.75159 3.0676 -0.223714 -0.20621 0.916096 -0.261149 3.1589 3.1589 3.1589 0.00174699 0.00166542 -0.000768722 -0.06265 0.0344288 -0.0693076 16 
17 1 -4.15553 1.05917 4.7561 0.115945 0.203378 -0.760443 0.60574 3.1589 3.1589 3.1589 0.00395039 0.00372585 -0.00248008 -0.020313 0.0122473 0.0418012 17 
18 1 -6.14954 -4.84605 -4.8021 0.430715 -0.156158 0.612298 -0.644353 3.1589 3.1589 3.1589 -0.00432145 0.00472692 -0.00248516 0.102495 -0.0394839 -0.0183592 18 
19 1 4.7073 -3.06059 1.6355 -0.117757 0.437792 -0.877714 -0.155205 3.1589 3.1589 3.1589 0.000104745 0.00118834 0.00491552 0.0242136 -0.0163353 -0.0365859 19 
20 1 5.68911 1.6637 -4.8105 -0.114112 -0.246846 -0.411256 -0.870008 3.1589 3.1589 3.1589 0.00342533 0.00516886 -0.00363629 -0.0159877 0.0334323 -0.0488633 20 
21 1 -4.74636 -0.669499 -1.1703 0.0892291 0.471634 -0.688456 0.543716 3.1589 3.1589 3.1589 -0.000907533 0.000793158 -0.00303279 0.0110313 -0.00483405 -0.0582642 21 
22 1 5.43248 -0.167298 2.6737 -0.738914 0.11087 -0.584464 -0.316411 3.1589 3.1589 3.1589 -0.0026965 0.00100462 0.00505538 -0.0141022 -0.00897185 0.0737325 22 
23 1 1.16503 6.1531 -0.617901 0.319257 0.477878 0.728796 -0.372241 3.1589 3.1589 3.1589 -0.00159748 0.000573581 0.00759786 0.0054748 -0.0819416 -0.0338048 23 
24 1 -0.164101 0.810535 1.9941 -0.985702 -0.0297801 -0.0866274 -0.141426 3.1589 3.1589 3.1589 0.0014524 -0.000515275 -0.00755803 -0.0496282 0.100193 0.0391727 24 
25 1 3.54953 4.52079 -2.7522 0.527727 -0.19786 0.772271 -0.293177 3.1589 3.1589 3.1589 -0.00612746 0.000881099 -0.00581952 0.00197603 0.0496793 0.00450924 25 
26 1 3.6491 0.683801 -3.097 0.604719 0.34924 0.553321 0.454073 3.1589 3.1589 3.1589 -0.0032198 0.00425954 -0.00382095 -0.0266278 -0.0417808 -0.0249918 26 
27 1 -1.1508 -3.1053 -2.68441 -0.381942 -0.37069 0.814904 0.229435 3.1589 3.1589 3.1589 -0.00154087 0.00323126 0.000273314 0.0539582 -0.156518 0.0545977 27 
28 1 3.9639 4.4643 4.5861 -0.916286 0.159149 0.177975 -0.321583 3.1589 3.1589 3.1589 -0.00266335 -0.00536133 -0.00529312 -0.00111873 0.0175645 0.116597 28 
29 1 -1.555 2.9267 -4.9993 0.182191 0.0990569 0.00285549 -0.978257 3.1589 3.1589 3.1589 0.00901098 -0.0031347 0.00215852 -0.0138996 0.00807345 0.0917735 29 
30 1 -4.88452 -4.9266 -0.557301 0.490659 0.179473 0.400539 -0.752736 3.1589 3.1589 3.1589 -0.00200149 -0.000415033 0.00357662 0.0505369 -0.0406518 0.0410101 30 
31 1 5.00102 4.0841 2.1699 0.0370892 0.738235 -0.432661 -0.516176 3.1589 3.1589 3.1589 0.0018486 0.000737691 0.00461788 0.0617287 0.038909 -0.00470644 31 
32 1 -4.91114 5.7902 -2.9051 0.713843 -0.364942 0.0865762 0.591397 3.1589 3.1589 3.1589 -0.00224751 -0.000121948 -0.0040959 -0.0594355 -0.125459 -0.0408787 32 
33 1 4.5272 -1.4628 -4.771 -0.488951 0.44282 -0.751201 -0.0231027 3.1589 3.1589 3.1589 -0.00430881 -0.00249135 -0.000285043 0.0931185 0.00114088 0.00692009 33 
34 1 2.3195 3.86958 -5.2755 -0.47389 0.303347 0.763603 -0.316732 3.1589 3.1589 3.1589 -0.00504314 -0.00509265 0.00269092 0.071086 0.0218434 -0.0290963 34 
35 1 5.9425 4.31536 -5.2369 -0.0980289 0.82264 0.337519 -0.446918 3.1589 3.1589 3.1589 0.00234008 -0.00120614 0.00230581 -0.0551408 0.0109787 0.0910922 35 
36 1 1.2908 -0.935499 -4.7051 0.676551 0.435794 -0.383939 -0.452717 3.1589 3.1589 3.1589 -0.00153674 -0.000568237 -0.00251565 -0.0433802 0.065712 -0.0342589 36 
37 1 -0.68564 3.6181 4.489 -0.578188 0.216584 -0.786551 -0.0113323 3.1589 3.1589 3.1589 0.00211955 -0.00198972 -0.00437323 -0.0559877 0.067118 0.0668867 37 
38 1 1.3547 -4.34228 -2.7128 0.987017 0.142946 0.0104332 0.0724911 3.1589 3.1589 3.1589 2.53277e-05 -0.00099643 -0.0010388 -0.0533107 0.0873726 -0.0924717 38 
39 1 4.9326 -5.1917 4.7336 -0.868877 0.38294 -0.313447 0.0126661 3.1589 3.1589 3.1589 0.000766612 -0.00829129 -0.000669528 0.00821073 0.022164 -0.00868771 39 
40 1 -2.928 1.38514 1.8216 -0.193015 0.504508 -0.502035 0.675409 3.1589 3.1589 3.1589 0.00149238 0.000175143 -0.00359247 0.040349 -0.0214207 0.0374788 40 
41 1 3.31478 -0.195566 -0.550901 0.755292 0.517293 -0.00083857 0.402419 3.1589 3.1589 3.1589 -0.00214224 0.00552541 -0.00597481 0.0653574 -0.0669825 -0.0526247 41 
42 1 3.5179 1.5406 1.7723 -0.6139 0.160461 -0.307638 -0.70904 3.1589 3.1589 3.1589 -0.00151655 -0.00117891 0.00598914 0.106482 0.00836305 0.0314413 42 
43 1 -0.998801 5.7828 -5.7254 0.530967 0.232759 0.33648 0.742077 3.1589 3.1589 3.1589 0.000632268 -0.00346137 0.00388881 -0.0358983 -0.0262442 -0.0392688 43 
44 1 -2.6622 -4.9706 2.021 0.440903 0.565503 -0.382854 -0.582437 3.1589 3.1589 3.1589 -0.00266199 -0.00334935 -0.00516332 -0.0287032 -0.125059 -0.0126235 44 
45 1 -0.681401 -0.366299 -2.0729 -0.396289 0.0327106 0.916658 0.0402792 3.1589 3.1589 3.1589 -0.00142439 -0.00247068 -0.00528972 0.0628803 0.0659011 -0.00142807 45 
46 1 -4.16729 -2.9585 -5.564 0.751475 -0.520083 -0.144075 -0.379528 3.1589 3.1589 3.1589 0.00156272 0.00400099 -0.00746346 -0.0569592 0.0144384 0.0296734 46 
47 1 -2.35284 -3.6333 -0.443701 0.642811 0.620458 -0.430153 -0.129596 3.1589 3.1589 3.1589 0.00514846 0.00429135 -0.00149307 0.0290767 -0.0708283 -0.0271182 47 
48 1 -1.22191 4.69637 -0.100301 0.345678 -0.0899947 0.816123 -0.45426 3.1589 3.1589 3.1589 0.0042307 -0.000633607 -0.0022404 -0.0154027 -0.00796671 -0.0519539 48 
49 1 1.4453 -6.0289 -4.936 0.814808 0.358757 -0.274071 0.363686 3.1589 3.1589 3.1589 -0.00538653 -0.00150961 -0.00270143 -0.0339209 -0.108494 -0.0876842 49 
50 1 4.18572 -5.24713 -2.79093 -0.579619 0.20705 0.784888 0.0715827 3.1589 3.1589 3.1589 0.00469444 0.00236859 0.00692653 -0.0616521 0.0373127 -0.0387949 50 
51 1 3.24077 -2.3765 -2.6535 -0.454606 -0.355168 -0.59604 0.558502 3.1589 3.1589 3.1589 -0.00106441 0.00273575 -0.00354473 0.0498332 0.0820544 0.031382 51 
52 1 -4.4265 -0.782098 1.6739 -0.63783 0.621842 -0.417828 -0.178623 3.1589 3.1589 3.1589 0.00445444 0.00313447 -0.00055123 0.0526395 -0.0707473 0.0243427 52 
53 1 1.1589 3.4754 -1.603 -0.0362693 -0.114225 -0.981713 0.147906 3.1589 3.1589 3.1589 -0.00301091 0.00270228 -0.00210722 0.0532812 -0.0362474 -0.0535532 53 
54 1 2.177 -4.2817 5.27046 -0.120109 0.697041 -0.0691753 -0.703507 3.1589 3.1589 3.1589 -0.0015449 0.00594665 -0.00217191 -0.0665273 -0.126949 0.0149389 54 
55 1 -2.3817 1.6561 -1.1231 -0.980718 0.180639 0.0626452 0.0404589 3.1589 3.1589 3.1589 -0.00233329 0.00273422 0.00414551 0.0486045 -0.0347833 -0.0650365 55 
56 1 1.91395 0.0884015 3.5772 0.312893 0.890289 -0.253489 0.212668 3.1589 3.1589 3.1589 0.00332663 -0.000238122 0.00204109 0.0468343 -0.0827854 -0.174624 56 
57 1 5.92879 3.742 -1.6437 0.359232 -0.370697 0.22013 0.827695 3.1589 3.1589 3.1589 -0.00863686 -0.00623666 0.00479746 0.0462854 -0.142004 0.141931 57 
58 1 -5.7452 -4.74173 2.73909 0.149592 -0.332443 -0.672827 0.643746 3.1589 3.1589 3.1589 0.0050756 0.000605613 0.00147314 -0.0570281 0.0585317 0.050605 58 
59 1 -1.4407 -3.50769 -5.4126 0.625558 0.104005 -0.705448 -0.316549 3.1589 3.1589 3.1589 -0.00226377 -0.00145755 -0.00136828 0.0493073 -0.102548 0.030173 59 
60 1 1.4904 4.7785 3.2376 -0.825769 -0.00970008 -0.259159 -0.500847 3.1589 3.1589 3.1589 0.00120027 -0.00394974 -0.00139845 -0.0407192 -0.0275016 0.000879091 60 
61 1 -0.599447 -0.992099 5.758 0.221691 0.0824768 0.850804 0.469237 3.1589 3.1589 3.1589 -0.007376 -0.00569496 -0.00133226 -0.0644531 0.0632504 -0.0550982 61 
62 1 0.911337 1.8115 -3.7199 0.759956 0.277236 0.561793 -0.173192 3.1589 3.1589 3.1589 -0.00294323 0.00715727 -0.00982773 0.0265931 0.0189496 -0.0495962 62 
63 1 4.939 1.4345 4.8991 -0.763779 -0.283406 0.56482 0.131537 3.1589 3.1589 3.1589 0.00735011 -0.00539795 -0.000770676 -0.0683228 -0.0518043 0.110975 63 
64 1 -5.32281 -0.750199 -4.5235 0.136589 0.0902 -0.0655384 0.984333 3.1589 3.1589 3.1589 -0.00553172 -0.00211903 0.002769 -0.016494 0.0696837 -0.0369577 64 
